
     Program PWSCF v.7.4.1 starts on  3Apr2025 at 13:36:15 

     This program is part of the open-source Quantum ESPRESSO suite
     for quantum simulation of materials; please cite
         "P. Giannozzi et al., J. Phys.:Condens. Matter 21 395502 (2009);
         "P. Giannozzi et al., J. Phys.:Condens. Matter 29 465901 (2017);
         "P. Giannozzi et al., J. Chem. Phys. 152 154105 (2020);
          URL http://www.quantum-espresso.org", 
     in publications or presentations arising from this work. More details at
     http://www.quantum-espresso.org/quote

     Parallel version (MPI & OpenMP), running on      20 processor cores
     Number of MPI processes:                20
     Threads/MPI process:                     1

     MPI processes distributed on     1 nodes
     82206 MiB available memory on the printing compute node when the environment starts

     Waiting for input...
     Reading input from standard input

     Current dimensions of program PWSCF are:
     Max number of different atomic species (ntypx) = 10
     Max number of k-points (npk) =  40000
     Max angular momentum in pseudopotentials (lmaxx) =  4

     IMPORTANT: XC functional enforced from input :
     Exchange-correlation= PBE
                           (   1   4   3   4   0   0   0)
     Any further DFT definition will be discarded
     Please, verify this is what you really want


     Atomic positions and unit cell read from directory:
     pwscf.out.d/pwscf.save/


     K-points division:     npool     =       2
     R & G space division:  proc/nbgrp/npool/nimage =      10
     Subspace diagonalization in iterative solution of the eigenvalue problem:
     a serial algorithm will be used


     Parallelization info
     --------------------
     sticks:   dense  smooth     PW     G-vecs:    dense   smooth      PW
     Min         107      85     25                 2358     1687     272
     Max         110      86     26                 2359     1690     276
     Sum        1075     859    253                23589    16889    2733

     Using Slab Decomposition


     Title: 
     Si (primitive)                                                             


     bravais-lattice index     =            2
     lattice parameter (alat)  =      10.2650  a.u.
     unit-cell volume          =     270.4057 (a.u.)^3
     number of atoms/cell      =            2
     number of atomic types    =            1
     number of electrons       =         8.00
     number of Kohn-Sham states=           20
     kinetic-energy cutoff     =      60.0000  Ry
     charge density cutoff     =     300.0000  Ry
     Exchange-correlation= PBE
                           (   1   4   3   4   0   0   0)

     celldm(1)=  10.264992  celldm(2)=   0.000000  celldm(3)=   0.000000
     celldm(4)=   0.000000  celldm(5)=   0.000000  celldm(6)=   0.000000

     crystal axes: (cart. coord. in units of alat)
               a(1) = (  -0.500000   0.000000   0.500000 )  
               a(2) = (   0.000000   0.500000   0.500000 )  
               a(3) = (  -0.500000   0.500000   0.000000 )  

     reciprocal axes: (cart. coord. in units 2 pi/alat)
               b(1) = ( -1.000000 -1.000000  1.000000 )  
               b(2) = (  1.000000  1.000000  1.000000 )  
               b(3) = ( -1.000000  1.000000 -1.000000 )  


     PseudoPot. # 1 for Si read from file:
     ./Si.pbe-nl-rrkjus_psl.1.0.0.UPF
     MD5 check sum: 78279d3766ecb5dbdc0623f3e93c9a23
     Pseudo is Ultrasoft + core correction, Zval =  4.0
     Generated using &quot;atomic&quot; code by A. Dal Corso  v.6.3
     Using radial grid of 1141 points,  4 beta functions with: 
                l(1) =   0
                l(2) =   0
                l(3) =   1
                l(4) =   1
     Q(r) pseudized with 0 coefficients 


     atomic species   valence    mass     pseudopotential
     Si                4.00    28.08550     Si( 1.00)

     48 Sym. Ops., with inversion, found (24 have fractional translation)


                                    s                        frac. trans.

      isym =  1     identity                                     

 cryst.   s( 1) = (     1          0          0      )
                  (     0          1          0      )
                  (     0          0          1      )

 cart.    s( 1) = (  1.0000000  0.0000000  0.0000000 )
                  (  0.0000000  1.0000000  0.0000000 )
                  (  0.0000000  0.0000000  1.0000000 )


      isym =  2     180 deg rotation - cart. axis [0,0,1]        

 cryst.   s( 2) = (     0          1         -1      )
                  (     1          0         -1      )
                  (     0          0         -1      )

 cart.    s( 2) = ( -1.0000000  0.0000000  0.0000000 )
                  (  0.0000000 -1.0000000  0.0000000 )
                  (  0.0000000  0.0000000  1.0000000 )


      isym =  3     180 deg rotation - cart. axis [0,1,0]        

 cryst.   s( 3) = (    -1          0          0      )
                  (    -1          0          1      )
                  (    -1          1          0      )

 cart.    s( 3) = ( -1.0000000  0.0000000  0.0000000 )
                  (  0.0000000  1.0000000  0.0000000 )
                  (  0.0000000  0.0000000 -1.0000000 )


      isym =  4     180 deg rotation - cart. axis [1,0,0]        

 cryst.   s( 4) = (     0         -1          1      )
                  (     0         -1          0      )
                  (     1         -1          0      )

 cart.    s( 4) = (  1.0000000  0.0000000  0.0000000 )
                  (  0.0000000 -1.0000000  0.0000000 )
                  (  0.0000000  0.0000000 -1.0000000 )


      isym =  5     180 deg rotation - cart. axis [1,1,0]        

 cryst.   s( 5) = (     0         -1          0      )    f =( -0.2500000 )
                  (    -1          0          0      )       ( -0.2500000 )
                  (     0          0         -1      )       ( -0.2500000 )

 cart.    s( 5) = (  0.0000000  1.0000000  0.0000000 )    f =(  0.2500000 )
                  (  1.0000000  0.0000000  0.0000000 )       ( -0.2500000 )
                  (  0.0000000  0.0000000 -1.0000000 )       ( -0.2500000 )


      isym =  6     180 deg rotation - cart. axis [1,-1,0]       

 cryst.   s( 6) = (    -1          0          1      )    f =( -0.2500000 )
                  (     0         -1          1      )       ( -0.2500000 )
                  (     0          0          1      )       ( -0.2500000 )

 cart.    s( 6) = (  0.0000000 -1.0000000  0.0000000 )    f =(  0.2500000 )
                  ( -1.0000000  0.0000000  0.0000000 )       ( -0.2500000 )
                  (  0.0000000  0.0000000 -1.0000000 )       ( -0.2500000 )


      isym =  7      90 deg rotation - cart. axis [0,0,-1]       

 cryst.   s( 7) = (     0          1          0      )    f =( -0.2500000 )
                  (     0          1         -1      )       ( -0.2500000 )
                  (    -1          1          0      )       ( -0.2500000 )

 cart.    s( 7) = (  0.0000000  1.0000000  0.0000000 )    f =(  0.2500000 )
                  ( -1.0000000  0.0000000  0.0000000 )       ( -0.2500000 )
                  (  0.0000000  0.0000000  1.0000000 )       ( -0.2500000 )


      isym =  8      90 deg rotation - cart. axis [0,0,1]        

 cryst.   s( 8) = (     1          0         -1      )    f =( -0.2500000 )
                  (     1          0          0      )       ( -0.2500000 )
                  (     1         -1          0      )       ( -0.2500000 )

 cart.    s( 8) = (  0.0000000 -1.0000000  0.0000000 )    f =(  0.2500000 )
                  (  1.0000000  0.0000000  0.0000000 )       ( -0.2500000 )
                  (  0.0000000  0.0000000  1.0000000 )       ( -0.2500000 )


      isym =  9     180 deg rotation - cart. axis [1,0,1]        

 cryst.   s( 9) = (    -1          0          0      )    f =( -0.2500000 )
                  (     0          0         -1      )       ( -0.2500000 )
                  (     0         -1          0      )       ( -0.2500000 )

 cart.    s( 9) = (  0.0000000  0.0000000  1.0000000 )    f =(  0.2500000 )
                  (  0.0000000 -1.0000000  0.0000000 )       ( -0.2500000 )
                  (  1.0000000  0.0000000  0.0000000 )       ( -0.2500000 )


      isym = 10     180 deg rotation - cart. axis [-1,0,1]       

 cryst.   s(10) = (     1          0          0      )    f =( -0.2500000 )
                  (     1         -1          0      )       ( -0.2500000 )
                  (     1          0         -1      )       ( -0.2500000 )

 cart.    s(10) = (  0.0000000  0.0000000 -1.0000000 )    f =(  0.2500000 )
                  (  0.0000000 -1.0000000  0.0000000 )       ( -0.2500000 )
                  ( -1.0000000  0.0000000  0.0000000 )       ( -0.2500000 )


      isym = 11      90 deg rotation - cart. axis [0,1,0]        

 cryst.   s(11) = (     0          1         -1      )    f =( -0.2500000 )
                  (    -1          1          0      )       ( -0.2500000 )
                  (     0          1          0      )       ( -0.2500000 )

 cart.    s(11) = (  0.0000000  0.0000000  1.0000000 )    f =(  0.2500000 )
                  (  0.0000000  1.0000000  0.0000000 )       ( -0.2500000 )
                  ( -1.0000000  0.0000000  0.0000000 )       ( -0.2500000 )


      isym = 12      90 deg rotation - cart. axis [0,-1,0]       

 cryst.   s(12) = (     0         -1          1      )    f =( -0.2500000 )
                  (     0          0          1      )       ( -0.2500000 )
                  (    -1          0          1      )       ( -0.2500000 )

 cart.    s(12) = (  0.0000000  0.0000000 -1.0000000 )    f =(  0.2500000 )
                  (  0.0000000  1.0000000  0.0000000 )       ( -0.2500000 )
                  (  1.0000000  0.0000000  0.0000000 )       ( -0.2500000 )


      isym = 13     180 deg rotation - cart. axis [0,1,1]        

 cryst.   s(13) = (    -1          1          0      )    f =( -0.2500000 )
                  (     0          1          0      )       ( -0.2500000 )
                  (     0          1         -1      )       ( -0.2500000 )

 cart.    s(13) = ( -1.0000000  0.0000000  0.0000000 )    f =(  0.2500000 )
                  (  0.0000000  0.0000000  1.0000000 )       ( -0.2500000 )
                  (  0.0000000  1.0000000  0.0000000 )       ( -0.2500000 )


      isym = 14     180 deg rotation - cart. axis [0,1,-1]       

 cryst.   s(14) = (     0          0         -1      )    f =( -0.2500000 )
                  (     0         -1          0      )       ( -0.2500000 )
                  (    -1          0          0      )       ( -0.2500000 )

 cart.    s(14) = ( -1.0000000  0.0000000  0.0000000 )    f =(  0.2500000 )
                  (  0.0000000  0.0000000 -1.0000000 )       ( -0.2500000 )
                  (  0.0000000 -1.0000000  0.0000000 )       ( -0.2500000 )


      isym = 15      90 deg rotation - cart. axis [-1,0,0]       

 cryst.   s(15) = (     0          0          1      )    f =( -0.2500000 )
                  (    -1          0          1      )       ( -0.2500000 )
                  (     0         -1          1      )       ( -0.2500000 )

 cart.    s(15) = (  1.0000000  0.0000000  0.0000000 )    f =(  0.2500000 )
                  (  0.0000000  0.0000000  1.0000000 )       ( -0.2500000 )
                  (  0.0000000 -1.0000000  0.0000000 )       ( -0.2500000 )


      isym = 16      90 deg rotation - cart. axis [1,0,0]        

 cryst.   s(16) = (     1         -1          0      )    f =( -0.2500000 )
                  (     1          0         -1      )       ( -0.2500000 )
                  (     1          0          0      )       ( -0.2500000 )

 cart.    s(16) = (  1.0000000  0.0000000  0.0000000 )    f =(  0.2500000 )
                  (  0.0000000  0.0000000 -1.0000000 )       ( -0.2500000 )
                  (  0.0000000  1.0000000  0.0000000 )       ( -0.2500000 )


      isym = 17     120 deg rotation - cart. axis [-1,-1,-1]     

 cryst.   s(17) = (    -1          0          1      )
                  (    -1          1          0      )
                  (    -1          0          0      )

 cart.    s(17) = (  0.0000000  1.0000000  0.0000000 )
                  (  0.0000000  0.0000000  1.0000000 )
                  (  1.0000000  0.0000000  0.0000000 )


      isym = 18     120 deg rotation - cart. axis [-1,1,1]       

 cryst.   s(18) = (     0          1          0      )
                  (     0          0          1      )
                  (     1          0          0      )

 cart.    s(18) = (  0.0000000 -1.0000000  0.0000000 )
                  (  0.0000000  0.0000000  1.0000000 )
                  ( -1.0000000  0.0000000  0.0000000 )


      isym = 19     120 deg rotation - cart. axis [1,1,-1]       

 cryst.   s(19) = (     1          0         -1      )
                  (     0          0         -1      )
                  (     0          1         -1      )

 cart.    s(19) = (  0.0000000  1.0000000  0.0000000 )
                  (  0.0000000  0.0000000 -1.0000000 )
                  ( -1.0000000  0.0000000  0.0000000 )


      isym = 20     120 deg rotation - cart. axis [1,-1,1]       

 cryst.   s(20) = (     0         -1          0      )
                  (     1         -1          0      )
                  (     0         -1          1      )

 cart.    s(20) = (  0.0000000 -1.0000000  0.0000000 )
                  (  0.0000000  0.0000000 -1.0000000 )
                  (  1.0000000  0.0000000  0.0000000 )


      isym = 21     120 deg rotation - cart. axis [1,1,1]        

 cryst.   s(21) = (     0          0         -1      )
                  (     0          1         -1      )
                  (     1          0         -1      )

 cart.    s(21) = (  0.0000000  0.0000000  1.0000000 )
                  (  1.0000000  0.0000000  0.0000000 )
                  (  0.0000000  1.0000000  0.0000000 )


      isym = 22     120 deg rotation - cart. axis [-1,1,-1]      

 cryst.   s(22) = (    -1          1          0      )
                  (    -1          0          0      )
                  (    -1          0          1      )

 cart.    s(22) = (  0.0000000  0.0000000  1.0000000 )
                  ( -1.0000000  0.0000000  0.0000000 )
                  (  0.0000000 -1.0000000  0.0000000 )


      isym = 23     120 deg rotation - cart. axis [1,-1,-1]      

 cryst.   s(23) = (     0          0          1      )
                  (     1          0          0      )
                  (     0          1          0      )

 cart.    s(23) = (  0.0000000  0.0000000 -1.0000000 )
                  ( -1.0000000  0.0000000  0.0000000 )
                  (  0.0000000  1.0000000  0.0000000 )


      isym = 24     120 deg rotation - cart. axis [-1,-1,1]      

 cryst.   s(24) = (     1         -1          0      )
                  (     0         -1          1      )
                  (     0         -1          0      )

 cart.    s(24) = (  0.0000000  0.0000000 -1.0000000 )
                  (  1.0000000  0.0000000  0.0000000 )
                  (  0.0000000 -1.0000000  0.0000000 )


      isym = 25     inversion                                    

 cryst.   s(25) = (    -1          0          0      )    f =( -0.2500000 )
                  (     0         -1          0      )       ( -0.2500000 )
                  (     0          0         -1      )       ( -0.2500000 )

 cart.    s(25) = ( -1.0000000  0.0000000  0.0000000 )    f =(  0.2500000 )
                  (  0.0000000 -1.0000000  0.0000000 )       ( -0.2500000 )
                  (  0.0000000  0.0000000 -1.0000000 )       ( -0.2500000 )


      isym = 26     inv. 180 deg rotation - cart. axis [0,0,1]   

 cryst.   s(26) = (     0         -1          1      )    f =( -0.2500000 )
                  (    -1          0          1      )       ( -0.2500000 )
                  (     0          0          1      )       ( -0.2500000 )

 cart.    s(26) = (  1.0000000  0.0000000  0.0000000 )    f =(  0.2500000 )
                  (  0.0000000  1.0000000  0.0000000 )       ( -0.2500000 )
                  (  0.0000000  0.0000000 -1.0000000 )       ( -0.2500000 )


      isym = 27     inv. 180 deg rotation - cart. axis [0,1,0]   

 cryst.   s(27) = (     1          0          0      )    f =( -0.2500000 )
                  (     1          0         -1      )       ( -0.2500000 )
                  (     1         -1          0      )       ( -0.2500000 )

 cart.    s(27) = (  1.0000000  0.0000000  0.0000000 )    f =(  0.2500000 )
                  (  0.0000000 -1.0000000  0.0000000 )       ( -0.2500000 )
                  (  0.0000000  0.0000000  1.0000000 )       ( -0.2500000 )


      isym = 28     inv. 180 deg rotation - cart. axis [1,0,0]   

 cryst.   s(28) = (     0          1         -1      )    f =( -0.2500000 )
                  (     0          1          0      )       ( -0.2500000 )
                  (    -1          1          0      )       ( -0.2500000 )

 cart.    s(28) = ( -1.0000000  0.0000000  0.0000000 )    f =(  0.2500000 )
                  (  0.0000000  1.0000000  0.0000000 )       ( -0.2500000 )
                  (  0.0000000  0.0000000  1.0000000 )       ( -0.2500000 )


      isym = 29     inv. 180 deg rotation - cart. axis [1,1,0]   

 cryst.   s(29) = (     0          1          0      )
                  (     1          0          0      )
                  (     0          0          1      )

 cart.    s(29) = (  0.0000000 -1.0000000  0.0000000 )
                  ( -1.0000000  0.0000000  0.0000000 )
                  (  0.0000000  0.0000000  1.0000000 )


      isym = 30     inv. 180 deg rotation - cart. axis [1,-1,0]  

 cryst.   s(30) = (     1          0         -1      )
                  (     0          1         -1      )
                  (     0          0         -1      )

 cart.    s(30) = (  0.0000000  1.0000000  0.0000000 )
                  (  1.0000000  0.0000000  0.0000000 )
                  (  0.0000000  0.0000000  1.0000000 )


      isym = 31     inv.  90 deg rotation - cart. axis [0,0,-1]  

 cryst.   s(31) = (     0         -1          0      )
                  (     0         -1          1      )
                  (     1         -1          0      )

 cart.    s(31) = (  0.0000000 -1.0000000  0.0000000 )
                  (  1.0000000  0.0000000  0.0000000 )
                  (  0.0000000  0.0000000 -1.0000000 )


      isym = 32     inv.  90 deg rotation - cart. axis [0,0,1]   

 cryst.   s(32) = (    -1          0          1      )
                  (    -1          0          0      )
                  (    -1          1          0      )

 cart.    s(32) = (  0.0000000  1.0000000  0.0000000 )
                  ( -1.0000000  0.0000000  0.0000000 )
                  (  0.0000000  0.0000000 -1.0000000 )


      isym = 33     inv. 180 deg rotation - cart. axis [1,0,1]   

 cryst.   s(33) = (     1          0          0      )
                  (     0          0          1      )
                  (     0          1          0      )

 cart.    s(33) = (  0.0000000  0.0000000 -1.0000000 )
                  (  0.0000000  1.0000000  0.0000000 )
                  ( -1.0000000  0.0000000  0.0000000 )


      isym = 34     inv. 180 deg rotation - cart. axis [-1,0,1]  

 cryst.   s(34) = (    -1          0          0      )
                  (    -1          1          0      )
                  (    -1          0          1      )

 cart.    s(34) = (  0.0000000  0.0000000  1.0000000 )
                  (  0.0000000  1.0000000  0.0000000 )
                  (  1.0000000  0.0000000  0.0000000 )


      isym = 35     inv.  90 deg rotation - cart. axis [0,1,0]   

 cryst.   s(35) = (     0         -1          1      )
                  (     1         -1          0      )
                  (     0         -1          0      )

 cart.    s(35) = (  0.0000000  0.0000000 -1.0000000 )
                  (  0.0000000 -1.0000000  0.0000000 )
                  (  1.0000000  0.0000000  0.0000000 )


      isym = 36     inv.  90 deg rotation - cart. axis [0,-1,0]  

 cryst.   s(36) = (     0          1         -1      )
                  (     0          0         -1      )
                  (     1          0         -1      )

 cart.    s(36) = (  0.0000000  0.0000000  1.0000000 )
                  (  0.0000000 -1.0000000  0.0000000 )
                  ( -1.0000000  0.0000000  0.0000000 )


      isym = 37     inv. 180 deg rotation - cart. axis [0,1,1]   

 cryst.   s(37) = (     1         -1          0      )
                  (     0         -1          0      )
                  (     0         -1          1      )

 cart.    s(37) = (  1.0000000  0.0000000  0.0000000 )
                  (  0.0000000  0.0000000 -1.0000000 )
                  (  0.0000000 -1.0000000  0.0000000 )


      isym = 38     inv. 180 deg rotation - cart. axis [0,1,-1]  

 cryst.   s(38) = (     0          0          1      )
                  (     0          1          0      )
                  (     1          0          0      )

 cart.    s(38) = (  1.0000000  0.0000000  0.0000000 )
                  (  0.0000000  0.0000000  1.0000000 )
                  (  0.0000000  1.0000000  0.0000000 )


      isym = 39     inv.  90 deg rotation - cart. axis [-1,0,0]  

 cryst.   s(39) = (     0          0         -1      )
                  (     1          0         -1      )
                  (     0          1         -1      )

 cart.    s(39) = ( -1.0000000  0.0000000  0.0000000 )
                  (  0.0000000  0.0000000 -1.0000000 )
                  (  0.0000000  1.0000000  0.0000000 )


      isym = 40     inv.  90 deg rotation - cart. axis [1,0,0]   

 cryst.   s(40) = (    -1          1          0      )
                  (    -1          0          1      )
                  (    -1          0          0      )

 cart.    s(40) = ( -1.0000000  0.0000000  0.0000000 )
                  (  0.0000000  0.0000000  1.0000000 )
                  (  0.0000000 -1.0000000  0.0000000 )


      isym = 41     inv. 120 deg rotation - cart. axis [-1,-1,-1]

 cryst.   s(41) = (     1          0         -1      )    f =( -0.2500000 )
                  (     1         -1          0      )       ( -0.2500000 )
                  (     1          0          0      )       ( -0.2500000 )

 cart.    s(41) = (  0.0000000 -1.0000000  0.0000000 )    f =(  0.2500000 )
                  (  0.0000000  0.0000000 -1.0000000 )       ( -0.2500000 )
                  ( -1.0000000  0.0000000  0.0000000 )       ( -0.2500000 )


      isym = 42     inv. 120 deg rotation - cart. axis [-1,1,1]  

 cryst.   s(42) = (     0         -1          0      )    f =( -0.2500000 )
                  (     0          0         -1      )       ( -0.2500000 )
                  (    -1          0          0      )       ( -0.2500000 )

 cart.    s(42) = (  0.0000000  1.0000000  0.0000000 )    f =(  0.2500000 )
                  (  0.0000000  0.0000000 -1.0000000 )       ( -0.2500000 )
                  (  1.0000000  0.0000000  0.0000000 )       ( -0.2500000 )


      isym = 43     inv. 120 deg rotation - cart. axis [1,1,-1]  

 cryst.   s(43) = (    -1          0          1      )    f =( -0.2500000 )
                  (     0          0          1      )       ( -0.2500000 )
                  (     0         -1          1      )       ( -0.2500000 )

 cart.    s(43) = (  0.0000000 -1.0000000  0.0000000 )    f =(  0.2500000 )
                  (  0.0000000  0.0000000  1.0000000 )       ( -0.2500000 )
                  (  1.0000000  0.0000000  0.0000000 )       ( -0.2500000 )


      isym = 44     inv. 120 deg rotation - cart. axis [1,-1,1]  

 cryst.   s(44) = (     0          1          0      )    f =( -0.2500000 )
                  (    -1          1          0      )       ( -0.2500000 )
                  (     0          1         -1      )       ( -0.2500000 )

 cart.    s(44) = (  0.0000000  1.0000000  0.0000000 )    f =(  0.2500000 )
                  (  0.0000000  0.0000000  1.0000000 )       ( -0.2500000 )
                  ( -1.0000000  0.0000000  0.0000000 )       ( -0.2500000 )


      isym = 45     inv. 120 deg rotation - cart. axis [1,1,1]   

 cryst.   s(45) = (     0          0          1      )    f =( -0.2500000 )
                  (     0         -1          1      )       ( -0.2500000 )
                  (    -1          0          1      )       ( -0.2500000 )

 cart.    s(45) = (  0.0000000  0.0000000 -1.0000000 )    f =(  0.2500000 )
                  ( -1.0000000  0.0000000  0.0000000 )       ( -0.2500000 )
                  (  0.0000000 -1.0000000  0.0000000 )       ( -0.2500000 )


      isym = 46     inv. 120 deg rotation - cart. axis [-1,1,-1] 

 cryst.   s(46) = (     1         -1          0      )    f =( -0.2500000 )
                  (     1          0          0      )       ( -0.2500000 )
                  (     1          0         -1      )       ( -0.2500000 )

 cart.    s(46) = (  0.0000000  0.0000000 -1.0000000 )    f =(  0.2500000 )
                  (  1.0000000  0.0000000  0.0000000 )       ( -0.2500000 )
                  (  0.0000000  1.0000000  0.0000000 )       ( -0.2500000 )


      isym = 47     inv. 120 deg rotation - cart. axis [1,-1,-1] 

 cryst.   s(47) = (     0          0         -1      )    f =( -0.2500000 )
                  (    -1          0          0      )       ( -0.2500000 )
                  (     0         -1          0      )       ( -0.2500000 )

 cart.    s(47) = (  0.0000000  0.0000000  1.0000000 )    f =(  0.2500000 )
                  (  1.0000000  0.0000000  0.0000000 )       ( -0.2500000 )
                  (  0.0000000 -1.0000000  0.0000000 )       ( -0.2500000 )


      isym = 48     inv. 120 deg rotation - cart. axis [-1,-1,1] 

 cryst.   s(48) = (    -1          1          0      )    f =( -0.2500000 )
                  (     0          1         -1      )       ( -0.2500000 )
                  (     0          1          0      )       ( -0.2500000 )

 cart.    s(48) = (  0.0000000  0.0000000  1.0000000 )    f =(  0.2500000 )
                  ( -1.0000000  0.0000000  0.0000000 )       ( -0.2500000 )
                  (  0.0000000  1.0000000  0.0000000 )       ( -0.2500000 )


     point group O_h (m-3m) 
     there are 10 classes
     the character table:

       E     8C3   3C2   6C4   6C2'  i     8S6   3s_h  6S4   6s_d 
A_1g   1.00  1.00  1.00  1.00  1.00  1.00  1.00  1.00  1.00  1.00
A_2g   1.00  1.00  1.00 -1.00 -1.00  1.00  1.00  1.00 -1.00 -1.00
E_g    2.00 -1.00  2.00  0.00  0.00  2.00 -1.00  2.00  0.00  0.00
T_1g   3.00  0.00 -1.00  1.00 -1.00  3.00  0.00 -1.00  1.00 -1.00
T_2g   3.00  0.00 -1.00 -1.00  1.00  3.00  0.00 -1.00 -1.00  1.00
A_1u   1.00  1.00  1.00  1.00  1.00 -1.00 -1.00 -1.00 -1.00 -1.00
A_2u   1.00  1.00  1.00 -1.00 -1.00 -1.00 -1.00 -1.00  1.00  1.00
E_u    2.00 -1.00  2.00  0.00  0.00 -2.00  1.00 -2.00  0.00  0.00
T_1u   3.00  0.00 -1.00  1.00 -1.00 -3.00  0.00  1.00 -1.00  1.00
T_2u   3.00  0.00 -1.00 -1.00  1.00 -3.00  0.00  1.00  1.00 -1.00

     the symmetry operations in each class and the name of the first element:

     E        1
          identity                                               
     8C3     17   19   20   18   24   21   22   23
          120 deg rotation - cart. axis [-1,-1,-1]               
     3C2      2    4    3
          180 deg rotation - cart. axis [0,0,1]                  
     6C4      7    8   15   16   12   11
           90 deg rotation - cart. axis [0,0,-1]                 
     6C2'     5    6   14   13   10    9
          180 deg rotation - cart. axis [1,1,0]                  
     i       25
          inversion                                              
     8S6     41   43   44   42   48   45   46   47
          inv. 120 deg rotation - cart. axis [-1,-1,-1]          
     3s_h    26   28   27
          inv. 180 deg rotation - cart. axis [0,0,1]             
     6S4     31   32   39   40   36   35
          inv.  90 deg rotation - cart. axis [0,0,-1]            
     6s_d    29   30   38   37   34   33
          inv. 180 deg rotation - cart. axis [1,1,0]             

   Cartesian axes

     site n.     atom                  positions (alat units)
         1        Si     tau(   1) = (   0.0000000   0.0000000   0.0000000  )
         2        Si     tau(   2) = (  -0.2500000   0.2500000   0.2500000  )

   Crystallographic axes

     site n.     atom                  positions (cryst. coord.)
         1        Si     tau(   1) = (  0.0000000  0.0000000  0.0000000  )
         2        Si     tau(   2) = (  0.2500000  0.2500000  0.2500000  )

     number of k points=   159
                       cart. coord. in units 2pi/alat
        k(    1) = (  -1.0000000   0.5000000   0.0000000), wk =   0.0125786
        k(    2) = (  -0.9843750   0.5000000   0.0156250), wk =   0.0125786
        k(    3) = (  -0.9687500   0.5000000   0.0312500), wk =   0.0125786
        k(    4) = (  -0.9531250   0.5000000   0.0468750), wk =   0.0125786
        k(    5) = (  -0.9375000   0.5000000   0.0625000), wk =   0.0125786
        k(    6) = (  -0.9218750   0.5000000   0.0781250), wk =   0.0125786
        k(    7) = (  -0.9062500   0.5000000   0.0937500), wk =   0.0125786
        k(    8) = (  -0.8906250   0.5000000   0.1093750), wk =   0.0125786
        k(    9) = (  -0.8750000   0.5000000   0.1250000), wk =   0.0125786
        k(   10) = (  -0.8593750   0.5000000   0.1406250), wk =   0.0125786
        k(   11) = (  -0.8437500   0.5000000   0.1562500), wk =   0.0125786
        k(   12) = (  -0.8281250   0.5000000   0.1718750), wk =   0.0125786
        k(   13) = (  -0.8125000   0.5000000   0.1875000), wk =   0.0125786
        k(   14) = (  -0.7968750   0.5000000   0.2031250), wk =   0.0125786
        k(   15) = (  -0.7812500   0.5000000   0.2187500), wk =   0.0125786
        k(   16) = (  -0.7656250   0.5000000   0.2343750), wk =   0.0125786
        k(   17) = (  -0.7500000   0.5000000   0.2500000), wk =   0.0125786
        k(   18) = (  -0.7343750   0.5000000   0.2656250), wk =   0.0125786
        k(   19) = (  -0.7187500   0.5000000   0.2812500), wk =   0.0125786
        k(   20) = (  -0.7031250   0.5000000   0.2968750), wk =   0.0125786
        k(   21) = (  -0.6875000   0.5000000   0.3125000), wk =   0.0125786
        k(   22) = (  -0.6718750   0.5000000   0.3281250), wk =   0.0125786
        k(   23) = (  -0.6562500   0.5000000   0.3437500), wk =   0.0125786
        k(   24) = (  -0.6406250   0.5000000   0.3593750), wk =   0.0125786
        k(   25) = (  -0.6250000   0.5000000   0.3750000), wk =   0.0125786
        k(   26) = (  -0.6093750   0.5000000   0.3906250), wk =   0.0125786
        k(   27) = (  -0.5937500   0.5000000   0.4062500), wk =   0.0125786
        k(   28) = (  -0.5781250   0.5000000   0.4218750), wk =   0.0125786
        k(   29) = (  -0.5625000   0.5000000   0.4375000), wk =   0.0125786
        k(   30) = (  -0.5468750   0.5000000   0.4531250), wk =   0.0125786
        k(   31) = (  -0.5312500   0.5000000   0.4687500), wk =   0.0125786
        k(   32) = (  -0.5156250   0.5000000   0.4843750), wk =   0.0125786
        k(   33) = (  -0.5000000   0.5000000   0.5000000), wk =   0.0125786
        k(   34) = (  -0.4871795   0.4871795   0.4871795), wk =   0.0125786
        k(   35) = (  -0.4743590   0.4743590   0.4743590), wk =   0.0125786
        k(   36) = (  -0.4615385   0.4615385   0.4615385), wk =   0.0125786
        k(   37) = (  -0.4487179   0.4487179   0.4487179), wk =   0.0125786
        k(   38) = (  -0.4358974   0.4358974   0.4358974), wk =   0.0125786
        k(   39) = (  -0.4230769   0.4230769   0.4230769), wk =   0.0125786
        k(   40) = (  -0.4102564   0.4102564   0.4102564), wk =   0.0125786
        k(   41) = (  -0.3974359   0.3974359   0.3974359), wk =   0.0125786
        k(   42) = (  -0.3846154   0.3846154   0.3846154), wk =   0.0125786
        k(   43) = (  -0.3717949   0.3717949   0.3717949), wk =   0.0125786
        k(   44) = (  -0.3589744   0.3589744   0.3589744), wk =   0.0125786
        k(   45) = (  -0.3461538   0.3461538   0.3461538), wk =   0.0125786
        k(   46) = (  -0.3333333   0.3333333   0.3333333), wk =   0.0125786
        k(   47) = (  -0.3205128   0.3205128   0.3205128), wk =   0.0125786
        k(   48) = (  -0.3076923   0.3076923   0.3076923), wk =   0.0125786
        k(   49) = (  -0.2948718   0.2948718   0.2948718), wk =   0.0125786
        k(   50) = (  -0.2820513   0.2820513   0.2820513), wk =   0.0125786
        k(   51) = (  -0.2692308   0.2692308   0.2692308), wk =   0.0125786
        k(   52) = (  -0.2564103   0.2564103   0.2564103), wk =   0.0125786
        k(   53) = (  -0.2435897   0.2435897   0.2435897), wk =   0.0125786
        k(   54) = (  -0.2307692   0.2307692   0.2307692), wk =   0.0125786
        k(   55) = (  -0.2179487   0.2179487   0.2179487), wk =   0.0125786
        k(   56) = (  -0.2051282   0.2051282   0.2051282), wk =   0.0125786
        k(   57) = (  -0.1923077   0.1923077   0.1923077), wk =   0.0125786
        k(   58) = (  -0.1794872   0.1794872   0.1794872), wk =   0.0125786
        k(   59) = (  -0.1666667   0.1666667   0.1666667), wk =   0.0125786
        k(   60) = (  -0.1538462   0.1538462   0.1538462), wk =   0.0125786
        k(   61) = (  -0.1410256   0.1410256   0.1410256), wk =   0.0125786
        k(   62) = (  -0.1282051   0.1282051   0.1282051), wk =   0.0125786
        k(   63) = (  -0.1153846   0.1153846   0.1153846), wk =   0.0125786
        k(   64) = (  -0.1025641   0.1025641   0.1025641), wk =   0.0125786
        k(   65) = (  -0.0897436   0.0897436   0.0897436), wk =   0.0125786
        k(   66) = (  -0.0769231   0.0769231   0.0769231), wk =   0.0125786
        k(   67) = (  -0.0641026   0.0641026   0.0641026), wk =   0.0125786
        k(   68) = (  -0.0512821   0.0512821   0.0512821), wk =   0.0125786
        k(   69) = (  -0.0384615   0.0384615   0.0384615), wk =   0.0125786
        k(   70) = (  -0.0256410   0.0256410   0.0256410), wk =   0.0125786
        k(   71) = (  -0.0128205   0.0128205   0.0128205), wk =   0.0125786
        k(   72) = (   0.0000000   0.0000000   0.0000000), wk =   0.0125786
        k(   73) = (  -0.0217391   0.0000000   0.0000000), wk =   0.0125786
        k(   74) = (  -0.0434783   0.0000000   0.0000000), wk =   0.0125786
        k(   75) = (  -0.0652174   0.0000000   0.0000000), wk =   0.0125786
        k(   76) = (  -0.0869565   0.0000000   0.0000000), wk =   0.0125786
        k(   77) = (  -0.1086957   0.0000000   0.0000000), wk =   0.0125786
        k(   78) = (  -0.1304348   0.0000000   0.0000000), wk =   0.0125786
        k(   79) = (  -0.1521739   0.0000000   0.0000000), wk =   0.0125786
        k(   80) = (  -0.1739130   0.0000000   0.0000000), wk =   0.0125786
        k(   81) = (  -0.1956522   0.0000000   0.0000000), wk =   0.0125786
        k(   82) = (  -0.2173913   0.0000000   0.0000000), wk =   0.0125786
        k(   83) = (  -0.2391304   0.0000000   0.0000000), wk =   0.0125786
        k(   84) = (  -0.2608696   0.0000000   0.0000000), wk =   0.0125786
        k(   85) = (  -0.2826087   0.0000000   0.0000000), wk =   0.0125786
        k(   86) = (  -0.3043478   0.0000000   0.0000000), wk =   0.0125786
        k(   87) = (  -0.3260870   0.0000000   0.0000000), wk =   0.0125786
        k(   88) = (  -0.3478261   0.0000000   0.0000000), wk =   0.0125786
        k(   89) = (  -0.3695652   0.0000000   0.0000000), wk =   0.0125786
        k(   90) = (  -0.3913043   0.0000000   0.0000000), wk =   0.0125786
        k(   91) = (  -0.4130435   0.0000000   0.0000000), wk =   0.0125786
        k(   92) = (  -0.4347826   0.0000000   0.0000000), wk =   0.0125786
        k(   93) = (  -0.4565217   0.0000000   0.0000000), wk =   0.0125786
        k(   94) = (  -0.4782609   0.0000000   0.0000000), wk =   0.0125786
        k(   95) = (  -0.5000000   0.0000000   0.0000000), wk =   0.0125786
        k(   96) = (  -0.5217391   0.0000000   0.0000000), wk =   0.0125786
        k(   97) = (  -0.5434783   0.0000000   0.0000000), wk =   0.0125786
        k(   98) = (  -0.5652174   0.0000000   0.0000000), wk =   0.0125786
        k(   99) = (  -0.5869565   0.0000000   0.0000000), wk =   0.0125786
        k(  100) = (  -0.6086957   0.0000000   0.0000000), wk =   0.0125786
        k(  101) = (  -0.6304348   0.0000000   0.0000000), wk =   0.0125786
        k(  102) = (  -0.6521739   0.0000000   0.0000000), wk =   0.0125786
        k(  103) = (  -0.6739130   0.0000000   0.0000000), wk =   0.0125786
        k(  104) = (  -0.6956522   0.0000000   0.0000000), wk =   0.0125786
        k(  105) = (  -0.7173913   0.0000000   0.0000000), wk =   0.0125786
        k(  106) = (  -0.7391304   0.0000000   0.0000000), wk =   0.0125786
        k(  107) = (  -0.7608696   0.0000000   0.0000000), wk =   0.0125786
        k(  108) = (  -0.7826087   0.0000000   0.0000000), wk =   0.0125786
        k(  109) = (  -0.8043478   0.0000000   0.0000000), wk =   0.0125786
        k(  110) = (  -0.8260870   0.0000000   0.0000000), wk =   0.0125786
        k(  111) = (  -0.8478261   0.0000000   0.0000000), wk =   0.0125786
        k(  112) = (  -0.8695652   0.0000000   0.0000000), wk =   0.0125786
        k(  113) = (  -0.8913043   0.0000000   0.0000000), wk =   0.0125786
        k(  114) = (  -0.9130435   0.0000000   0.0000000), wk =   0.0125786
        k(  115) = (  -0.9347826   0.0000000   0.0000000), wk =   0.0125786
        k(  116) = (  -0.9565217   0.0000000   0.0000000), wk =   0.0125786
        k(  117) = (  -0.9782609   0.0000000   0.0000000), wk =   0.0125786
        k(  118) = (  -1.0000000   0.0000000   0.0000000), wk =   0.0125786
        k(  119) = (  -1.0000000   0.0208333   0.0000000), wk =   0.0125786
        k(  120) = (  -1.0000000   0.0416667   0.0000000), wk =   0.0125786
        k(  121) = (  -1.0000000   0.0625000   0.0000000), wk =   0.0125786
        k(  122) = (  -1.0000000   0.0833333   0.0000000), wk =   0.0125786
        k(  123) = (  -1.0000000   0.1041667   0.0000000), wk =   0.0125786
        k(  124) = (  -1.0000000   0.1250000   0.0000000), wk =   0.0125786
        k(  125) = (  -1.0000000   0.1458333   0.0000000), wk =   0.0125786
        k(  126) = (  -1.0000000   0.1666667   0.0000000), wk =   0.0125786
        k(  127) = (  -1.0000000   0.1875000   0.0000000), wk =   0.0125786
        k(  128) = (  -1.0000000   0.2083333   0.0000000), wk =   0.0125786
        k(  129) = (  -1.0000000   0.2291667   0.0000000), wk =   0.0125786
        k(  130) = (  -1.0000000   0.2500000   0.0000000), wk =   0.0125786
        k(  131) = (  -1.0000000   0.2708333   0.0000000), wk =   0.0125786
        k(  132) = (  -1.0000000   0.2916667   0.0000000), wk =   0.0125786
        k(  133) = (  -1.0000000   0.3125000   0.0000000), wk =   0.0125786
        k(  134) = (  -1.0000000   0.3333333   0.0000000), wk =   0.0125786
        k(  135) = (  -1.0000000   0.3541667   0.0000000), wk =   0.0125786
        k(  136) = (  -1.0000000   0.3750000   0.0000000), wk =   0.0125786
        k(  137) = (  -1.0000000   0.3958333   0.0000000), wk =   0.0125786
        k(  138) = (  -1.0000000   0.4166667   0.0000000), wk =   0.0125786
        k(  139) = (  -1.0000000   0.4375000   0.0000000), wk =   0.0125786
        k(  140) = (  -1.0000000   0.4583333   0.0000000), wk =   0.0125786
        k(  141) = (  -1.0000000   0.4791667   0.0000000), wk =   0.0125786
        k(  142) = (  -1.0000000   0.5000000   0.0000000), wk =   0.0125786
        k(  143) = (  -0.9852941   0.5147059   0.0000000), wk =   0.0125786
        k(  144) = (  -0.9705882   0.5294118   0.0000000), wk =   0.0125786
        k(  145) = (  -0.9558824   0.5441176   0.0000000), wk =   0.0125786
        k(  146) = (  -0.9411765   0.5588235   0.0000000), wk =   0.0125786
        k(  147) = (  -0.9264706   0.5735294   0.0000000), wk =   0.0125786
        k(  148) = (  -0.9117647   0.5882353   0.0000000), wk =   0.0125786
        k(  149) = (  -0.8970588   0.6029412   0.0000000), wk =   0.0125786
        k(  150) = (  -0.8823529   0.6176471   0.0000000), wk =   0.0125786
        k(  151) = (  -0.8676471   0.6323529   0.0000000), wk =   0.0125786
        k(  152) = (  -0.8529412   0.6470588   0.0000000), wk =   0.0125786
        k(  153) = (  -0.8382353   0.6617647   0.0000000), wk =   0.0125786
        k(  154) = (  -0.8235294   0.6764706   0.0000000), wk =   0.0125786
        k(  155) = (  -0.8088235   0.6911765   0.0000000), wk =   0.0125786
        k(  156) = (  -0.7941176   0.7058824   0.0000000), wk =   0.0125786
        k(  157) = (  -0.7794118   0.7205882   0.0000000), wk =   0.0125786
        k(  158) = (  -0.7647059   0.7352941   0.0000000), wk =   0.0125786
        k(  159) = (  -0.7500000   0.7500000   0.0000000), wk =   0.0125786

                       cryst. coord.
        k(    1) = (   0.5000000   0.2500000   0.7500000), wk =   0.0125786
        k(    2) = (   0.5000000   0.2578125   0.7421875), wk =   0.0125786
        k(    3) = (   0.5000000   0.2656250   0.7343750), wk =   0.0125786
        k(    4) = (   0.5000000   0.2734375   0.7265625), wk =   0.0125786
        k(    5) = (   0.5000000   0.2812500   0.7187500), wk =   0.0125786
        k(    6) = (   0.5000000   0.2890625   0.7109375), wk =   0.0125786
        k(    7) = (   0.5000000   0.2968750   0.7031250), wk =   0.0125786
        k(    8) = (   0.5000000   0.3046875   0.6953125), wk =   0.0125786
        k(    9) = (   0.5000000   0.3125000   0.6875000), wk =   0.0125786
        k(   10) = (   0.5000000   0.3203125   0.6796875), wk =   0.0125786
        k(   11) = (   0.5000000   0.3281250   0.6718750), wk =   0.0125786
        k(   12) = (   0.5000000   0.3359375   0.6640625), wk =   0.0125786
        k(   13) = (   0.5000000   0.3437500   0.6562500), wk =   0.0125786
        k(   14) = (   0.5000000   0.3515625   0.6484375), wk =   0.0125786
        k(   15) = (   0.5000000   0.3593750   0.6406250), wk =   0.0125786
        k(   16) = (   0.5000000   0.3671875   0.6328125), wk =   0.0125786
        k(   17) = (   0.5000000   0.3750000   0.6250000), wk =   0.0125786
        k(   18) = (   0.5000000   0.3828125   0.6171875), wk =   0.0125786
        k(   19) = (   0.5000000   0.3906250   0.6093750), wk =   0.0125786
        k(   20) = (   0.5000000   0.3984375   0.6015625), wk =   0.0125786
        k(   21) = (   0.5000000   0.4062500   0.5937500), wk =   0.0125786
        k(   22) = (   0.5000000   0.4140625   0.5859375), wk =   0.0125786
        k(   23) = (   0.5000000   0.4218750   0.5781250), wk =   0.0125786
        k(   24) = (   0.5000000   0.4296875   0.5703125), wk =   0.0125786
        k(   25) = (   0.5000000   0.4375000   0.5625000), wk =   0.0125786
        k(   26) = (   0.5000000   0.4453125   0.5546875), wk =   0.0125786
        k(   27) = (   0.5000000   0.4531250   0.5468750), wk =   0.0125786
        k(   28) = (   0.5000000   0.4609375   0.5390625), wk =   0.0125786
        k(   29) = (   0.5000000   0.4687500   0.5312500), wk =   0.0125786
        k(   30) = (   0.5000000   0.4765625   0.5234375), wk =   0.0125786
        k(   31) = (   0.5000000   0.4843750   0.5156250), wk =   0.0125786
        k(   32) = (   0.5000000   0.4921875   0.5078125), wk =   0.0125786
        k(   33) = (   0.5000000   0.5000000   0.5000000), wk =   0.0125786
        k(   34) = (   0.4871795   0.4871795   0.4871795), wk =   0.0125786
        k(   35) = (   0.4743590   0.4743590   0.4743590), wk =   0.0125786
        k(   36) = (   0.4615385   0.4615385   0.4615385), wk =   0.0125786
        k(   37) = (   0.4487179   0.4487179   0.4487179), wk =   0.0125786
        k(   38) = (   0.4358974   0.4358974   0.4358974), wk =   0.0125786
        k(   39) = (   0.4230769   0.4230769   0.4230769), wk =   0.0125786
        k(   40) = (   0.4102564   0.4102564   0.4102564), wk =   0.0125786
        k(   41) = (   0.3974359   0.3974359   0.3974359), wk =   0.0125786
        k(   42) = (   0.3846154   0.3846154   0.3846154), wk =   0.0125786
        k(   43) = (   0.3717949   0.3717949   0.3717949), wk =   0.0125786
        k(   44) = (   0.3589744   0.3589744   0.3589744), wk =   0.0125786
        k(   45) = (   0.3461538   0.3461538   0.3461538), wk =   0.0125786
        k(   46) = (   0.3333333   0.3333333   0.3333333), wk =   0.0125786
        k(   47) = (   0.3205128   0.3205128   0.3205128), wk =   0.0125786
        k(   48) = (   0.3076923   0.3076923   0.3076923), wk =   0.0125786
        k(   49) = (   0.2948718   0.2948718   0.2948718), wk =   0.0125786
        k(   50) = (   0.2820513   0.2820513   0.2820513), wk =   0.0125786
        k(   51) = (   0.2692308   0.2692308   0.2692308), wk =   0.0125786
        k(   52) = (   0.2564103   0.2564103   0.2564103), wk =   0.0125786
        k(   53) = (   0.2435897   0.2435897   0.2435897), wk =   0.0125786
        k(   54) = (   0.2307692   0.2307692   0.2307692), wk =   0.0125786
        k(   55) = (   0.2179487   0.2179487   0.2179487), wk =   0.0125786
        k(   56) = (   0.2051282   0.2051282   0.2051282), wk =   0.0125786
        k(   57) = (   0.1923077   0.1923077   0.1923077), wk =   0.0125786
        k(   58) = (   0.1794872   0.1794872   0.1794872), wk =   0.0125786
        k(   59) = (   0.1666667   0.1666667   0.1666667), wk =   0.0125786
        k(   60) = (   0.1538462   0.1538462   0.1538462), wk =   0.0125786
        k(   61) = (   0.1410256   0.1410256   0.1410256), wk =   0.0125786
        k(   62) = (   0.1282051   0.1282051   0.1282051), wk =   0.0125786
        k(   63) = (   0.1153846   0.1153846   0.1153846), wk =   0.0125786
        k(   64) = (   0.1025641   0.1025641   0.1025641), wk =   0.0125786
        k(   65) = (   0.0897436   0.0897436   0.0897436), wk =   0.0125786
        k(   66) = (   0.0769231   0.0769231   0.0769231), wk =   0.0125786
        k(   67) = (   0.0641026   0.0641026   0.0641026), wk =   0.0125786
        k(   68) = (   0.0512821   0.0512821   0.0512821), wk =   0.0125786
        k(   69) = (   0.0384615   0.0384615   0.0384615), wk =   0.0125786
        k(   70) = (   0.0256410   0.0256410   0.0256410), wk =   0.0125786
        k(   71) = (   0.0128205   0.0128205   0.0128205), wk =   0.0125786
        k(   72) = (   0.0000000   0.0000000   0.0000000), wk =   0.0125786
        k(   73) = (   0.0108696   0.0000000   0.0108696), wk =   0.0125786
        k(   74) = (   0.0217391   0.0000000   0.0217391), wk =   0.0125786
        k(   75) = (   0.0326087   0.0000000   0.0326087), wk =   0.0125786
        k(   76) = (   0.0434783   0.0000000   0.0434783), wk =   0.0125786
        k(   77) = (   0.0543478   0.0000000   0.0543478), wk =   0.0125786
        k(   78) = (   0.0652174   0.0000000   0.0652174), wk =   0.0125786
        k(   79) = (   0.0760870   0.0000000   0.0760870), wk =   0.0125786
        k(   80) = (   0.0869565   0.0000000   0.0869565), wk =   0.0125786
        k(   81) = (   0.0978261   0.0000000   0.0978261), wk =   0.0125786
        k(   82) = (   0.1086957   0.0000000   0.1086957), wk =   0.0125786
        k(   83) = (   0.1195652   0.0000000   0.1195652), wk =   0.0125786
        k(   84) = (   0.1304348   0.0000000   0.1304348), wk =   0.0125786
        k(   85) = (   0.1413043   0.0000000   0.1413043), wk =   0.0125786
        k(   86) = (   0.1521739   0.0000000   0.1521739), wk =   0.0125786
        k(   87) = (   0.1630435   0.0000000   0.1630435), wk =   0.0125786
        k(   88) = (   0.1739130   0.0000000   0.1739130), wk =   0.0125786
        k(   89) = (   0.1847826   0.0000000   0.1847826), wk =   0.0125786
        k(   90) = (   0.1956522   0.0000000   0.1956522), wk =   0.0125786
        k(   91) = (   0.2065217   0.0000000   0.2065217), wk =   0.0125786
        k(   92) = (   0.2173913   0.0000000   0.2173913), wk =   0.0125786
        k(   93) = (   0.2282609   0.0000000   0.2282609), wk =   0.0125786
        k(   94) = (   0.2391304   0.0000000   0.2391304), wk =   0.0125786
        k(   95) = (   0.2500000   0.0000000   0.2500000), wk =   0.0125786
        k(   96) = (   0.2608696   0.0000000   0.2608696), wk =   0.0125786
        k(   97) = (   0.2717391   0.0000000   0.2717391), wk =   0.0125786
        k(   98) = (   0.2826087   0.0000000   0.2826087), wk =   0.0125786
        k(   99) = (   0.2934783   0.0000000   0.2934783), wk =   0.0125786
        k(  100) = (   0.3043478   0.0000000   0.3043478), wk =   0.0125786
        k(  101) = (   0.3152174   0.0000000   0.3152174), wk =   0.0125786
        k(  102) = (   0.3260870   0.0000000   0.3260870), wk =   0.0125786
        k(  103) = (   0.3369565   0.0000000   0.3369565), wk =   0.0125786
        k(  104) = (   0.3478261   0.0000000   0.3478261), wk =   0.0125786
        k(  105) = (   0.3586957   0.0000000   0.3586957), wk =   0.0125786
        k(  106) = (   0.3695652   0.0000000   0.3695652), wk =   0.0125786
        k(  107) = (   0.3804348   0.0000000   0.3804348), wk =   0.0125786
        k(  108) = (   0.3913043   0.0000000   0.3913043), wk =   0.0125786
        k(  109) = (   0.4021739   0.0000000   0.4021739), wk =   0.0125786
        k(  110) = (   0.4130435   0.0000000   0.4130435), wk =   0.0125786
        k(  111) = (   0.4239130   0.0000000   0.4239130), wk =   0.0125786
        k(  112) = (   0.4347826   0.0000000   0.4347826), wk =   0.0125786
        k(  113) = (   0.4456522   0.0000000   0.4456522), wk =   0.0125786
        k(  114) = (   0.4565217   0.0000000   0.4565217), wk =   0.0125786
        k(  115) = (   0.4673913   0.0000000   0.4673913), wk =   0.0125786
        k(  116) = (   0.4782609   0.0000000   0.4782609), wk =   0.0125786
        k(  117) = (   0.4891304   0.0000000   0.4891304), wk =   0.0125786
        k(  118) = (   0.5000000   0.0000000   0.5000000), wk =   0.0125786
        k(  119) = (   0.5000000   0.0104167   0.5104167), wk =   0.0125786
        k(  120) = (   0.5000000   0.0208333   0.5208333), wk =   0.0125786
        k(  121) = (   0.5000000   0.0312500   0.5312500), wk =   0.0125786
        k(  122) = (   0.5000000   0.0416667   0.5416667), wk =   0.0125786
        k(  123) = (   0.5000000   0.0520833   0.5520833), wk =   0.0125786
        k(  124) = (   0.5000000   0.0625000   0.5625000), wk =   0.0125786
        k(  125) = (   0.5000000   0.0729167   0.5729167), wk =   0.0125786
        k(  126) = (   0.5000000   0.0833333   0.5833333), wk =   0.0125786
        k(  127) = (   0.5000000   0.0937500   0.5937500), wk =   0.0125786
        k(  128) = (   0.5000000   0.1041667   0.6041667), wk =   0.0125786
        k(  129) = (   0.5000000   0.1145833   0.6145833), wk =   0.0125786
        k(  130) = (   0.5000000   0.1250000   0.6250000), wk =   0.0125786
        k(  131) = (   0.5000000   0.1354167   0.6354167), wk =   0.0125786
        k(  132) = (   0.5000000   0.1458333   0.6458333), wk =   0.0125786
        k(  133) = (   0.5000000   0.1562500   0.6562500), wk =   0.0125786
        k(  134) = (   0.5000000   0.1666667   0.6666667), wk =   0.0125786
        k(  135) = (   0.5000000   0.1770833   0.6770833), wk =   0.0125786
        k(  136) = (   0.5000000   0.1875000   0.6875000), wk =   0.0125786
        k(  137) = (   0.5000000   0.1979167   0.6979167), wk =   0.0125786
        k(  138) = (   0.5000000   0.2083333   0.7083333), wk =   0.0125786
        k(  139) = (   0.5000000   0.2187500   0.7187500), wk =   0.0125786
        k(  140) = (   0.5000000   0.2291667   0.7291667), wk =   0.0125786
        k(  141) = (   0.5000000   0.2395833   0.7395833), wk =   0.0125786
        k(  142) = (   0.5000000   0.2500000   0.7500000), wk =   0.0125786
        k(  143) = (   0.4926471   0.2573529   0.7500000), wk =   0.0125786
        k(  144) = (   0.4852941   0.2647059   0.7500000), wk =   0.0125786
        k(  145) = (   0.4779412   0.2720588   0.7500000), wk =   0.0125786
        k(  146) = (   0.4705882   0.2794118   0.7500000), wk =   0.0125786
        k(  147) = (   0.4632353   0.2867647   0.7500000), wk =   0.0125786
        k(  148) = (   0.4558824   0.2941176   0.7500000), wk =   0.0125786
        k(  149) = (   0.4485294   0.3014706   0.7500000), wk =   0.0125786
        k(  150) = (   0.4411765   0.3088235   0.7500000), wk =   0.0125786
        k(  151) = (   0.4338235   0.3161765   0.7500000), wk =   0.0125786
        k(  152) = (   0.4264706   0.3235294   0.7500000), wk =   0.0125786
        k(  153) = (   0.4191176   0.3308824   0.7500000), wk =   0.0125786
        k(  154) = (   0.4117647   0.3382353   0.7500000), wk =   0.0125786
        k(  155) = (   0.4044118   0.3455882   0.7500000), wk =   0.0125786
        k(  156) = (   0.3970588   0.3529412   0.7500000), wk =   0.0125786
        k(  157) = (   0.3897059   0.3602941   0.7500000), wk =   0.0125786
        k(  158) = (   0.3823529   0.3676471   0.7500000), wk =   0.0125786
        k(  159) = (   0.3750000   0.3750000   0.7500000), wk =   0.0125786

     Dense  grid:    23589 G-vectors     FFT dimensions: (  48,  48,  48)

     Smooth grid:    16889 G-vectors     FFT dimensions: (  36,  36,  36)

     Dynamical RAM for                 wfc:       0.06 MB

     Dynamical RAM for     wfc (w. buffer):       0.06 MB

     Dynamical RAM for           str. fact:       0.04 MB

     Dynamical RAM for           local pot:       0.00 MB

     Dynamical RAM for          nlocal pot:       0.05 MB

     Dynamical RAM for                qrad:       0.40 MB

     Dynamical RAM for          rho,v,vnew:       0.37 MB

     Dynamical RAM for           G-vectors:       0.15 MB

     Dynamical RAM for          h,s,v(r/c):       0.02 MB

     Dynamical RAM for          <psi|beta>:       0.00 MB

     Dynamical RAM for      wfcinit/wfcrot:       0.14 MB

     Dynamical RAM for           addusdens:       0.83 MB

     Estimated static dynamical RAM per process >       1.58 MB

     Estimated max dynamical RAM per process >       2.41 MB

     Estimated total dynamical RAM >      48.17 MB

     The potential is recalculated from file :
     pwscf.out.d/pwscf.save/charge-density

     Starting wfcs are random

     Band Structure Calculation
     CG style diagonalization

     Computing kpt #:     1  of    80 on this pool
     total cpu time spent up to now is        1.5 secs

     Computing kpt #:     2  of    80 on this pool
     total cpu time spent up to now is        1.8 secs

     Computing kpt #:     3  of    80 on this pool
     total cpu time spent up to now is        2.1 secs

     Computing kpt #:     4  of    80 on this pool
     total cpu time spent up to now is        2.3 secs

     Computing kpt #:     5  of    80 on this pool
     total cpu time spent up to now is        2.6 secs

     Computing kpt #:     6  of    80 on this pool
     total cpu time spent up to now is        2.9 secs

     Computing kpt #:     7  of    80 on this pool
     total cpu time spent up to now is        3.2 secs

     Computing kpt #:     8  of    80 on this pool
     total cpu time spent up to now is        3.5 secs

     Computing kpt #:     9  of    80 on this pool
     total cpu time spent up to now is        3.8 secs

     Computing kpt #:    10  of    80 on this pool
     total cpu time spent up to now is        4.1 secs

     Computing kpt #:    11  of    80 on this pool
     total cpu time spent up to now is        4.4 secs

     Computing kpt #:    12  of    80 on this pool
     total cpu time spent up to now is        4.7 secs

     Computing kpt #:    13  of    80 on this pool
     total cpu time spent up to now is        4.9 secs

     Computing kpt #:    14  of    80 on this pool
     total cpu time spent up to now is        5.2 secs

     Computing kpt #:    15  of    80 on this pool
     total cpu time spent up to now is        5.5 secs

     Computing kpt #:    16  of    80 on this pool
     total cpu time spent up to now is        5.8 secs

     Computing kpt #:    17  of    80 on this pool
     total cpu time spent up to now is        6.1 secs

     Computing kpt #:    18  of    80 on this pool
     total cpu time spent up to now is        6.4 secs

     Computing kpt #:    19  of    80 on this pool
     total cpu time spent up to now is        6.7 secs

     Computing kpt #:    20  of    80 on this pool
     total cpu time spent up to now is        7.0 secs

     Computing kpt #:    21  of    80 on this pool
     total cpu time spent up to now is        7.3 secs

     Computing kpt #:    22  of    80 on this pool
     total cpu time spent up to now is        7.6 secs

     Computing kpt #:    23  of    80 on this pool
     total cpu time spent up to now is        7.9 secs

     Computing kpt #:    24  of    80 on this pool
     total cpu time spent up to now is        8.2 secs

     Computing kpt #:    25  of    80 on this pool
     total cpu time spent up to now is        8.5 secs

     Computing kpt #:    26  of    80 on this pool
     total cpu time spent up to now is        8.8 secs

     Computing kpt #:    27  of    80 on this pool
     total cpu time spent up to now is        9.1 secs

     Computing kpt #:    28  of    80 on this pool
     total cpu time spent up to now is        9.5 secs

     Computing kpt #:    29  of    80 on this pool
     total cpu time spent up to now is        9.8 secs

     Computing kpt #:    30  of    80 on this pool
     total cpu time spent up to now is       10.1 secs

     Computing kpt #:    31  of    80 on this pool
     total cpu time spent up to now is       10.4 secs

     Computing kpt #:    32  of    80 on this pool
     total cpu time spent up to now is       10.7 secs

     Computing kpt #:    33  of    80 on this pool
     total cpu time spent up to now is       11.1 secs

     Computing kpt #:    34  of    80 on this pool
     total cpu time spent up to now is       11.5 secs

     Computing kpt #:    35  of    80 on this pool
     total cpu time spent up to now is       11.8 secs

     Computing kpt #:    36  of    80 on this pool
     total cpu time spent up to now is       12.1 secs

     Computing kpt #:    37  of    80 on this pool
     total cpu time spent up to now is       12.4 secs

     Computing kpt #:    38  of    80 on this pool
     total cpu time spent up to now is       12.7 secs

     Computing kpt #:    39  of    80 on this pool
     total cpu time spent up to now is       12.9 secs

     Computing kpt #:    40  of    80 on this pool
     total cpu time spent up to now is       13.2 secs

     Computing kpt #:    41  of    80 on this pool
     total cpu time spent up to now is       13.5 secs

     Computing kpt #:    42  of    80 on this pool
     total cpu time spent up to now is       13.8 secs

     Computing kpt #:    43  of    80 on this pool
     total cpu time spent up to now is       14.1 secs

     Computing kpt #:    44  of    80 on this pool
     total cpu time spent up to now is       14.3 secs

     Computing kpt #:    45  of    80 on this pool
     total cpu time spent up to now is       14.6 secs

     Computing kpt #:    46  of    80 on this pool
     total cpu time spent up to now is       14.9 secs

     Computing kpt #:    47  of    80 on this pool
     total cpu time spent up to now is       15.1 secs

     Computing kpt #:    48  of    80 on this pool
     total cpu time spent up to now is       15.4 secs

     Computing kpt #:    49  of    80 on this pool
     total cpu time spent up to now is       15.6 secs

     Computing kpt #:    50  of    80 on this pool
     total cpu time spent up to now is       15.9 secs

     Computing kpt #:    51  of    80 on this pool
     total cpu time spent up to now is       16.1 secs

     Computing kpt #:    52  of    80 on this pool
     total cpu time spent up to now is       16.4 secs

     Computing kpt #:    53  of    80 on this pool
     total cpu time spent up to now is       16.6 secs

     Computing kpt #:    54  of    80 on this pool
     total cpu time spent up to now is       16.9 secs

     Computing kpt #:    55  of    80 on this pool
     total cpu time spent up to now is       17.1 secs

     Computing kpt #:    56  of    80 on this pool
     total cpu time spent up to now is       17.4 secs

     Computing kpt #:    57  of    80 on this pool
     total cpu time spent up to now is       17.6 secs

     Computing kpt #:    58  of    80 on this pool
     total cpu time spent up to now is       17.8 secs

     Computing kpt #:    59  of    80 on this pool
     total cpu time spent up to now is       18.1 secs

     Computing kpt #:    60  of    80 on this pool
     total cpu time spent up to now is       18.3 secs

     Computing kpt #:    61  of    80 on this pool
     total cpu time spent up to now is       18.6 secs

     Computing kpt #:    62  of    80 on this pool
     total cpu time spent up to now is       18.8 secs

     Computing kpt #:    63  of    80 on this pool
     total cpu time spent up to now is       19.2 secs

     Computing kpt #:    64  of    80 on this pool
     total cpu time spent up to now is       19.5 secs

     Computing kpt #:    65  of    80 on this pool
     total cpu time spent up to now is       19.8 secs

     Computing kpt #:    66  of    80 on this pool
     total cpu time spent up to now is       20.1 secs

     Computing kpt #:    67  of    80 on this pool
     total cpu time spent up to now is       20.4 secs

     Computing kpt #:    68  of    80 on this pool
     total cpu time spent up to now is       20.7 secs

     Computing kpt #:    69  of    80 on this pool
     total cpu time spent up to now is       21.0 secs

     Computing kpt #:    70  of    80 on this pool
     total cpu time spent up to now is       21.3 secs

     Computing kpt #:    71  of    80 on this pool
     total cpu time spent up to now is       21.7 secs

     Computing kpt #:    72  of    80 on this pool
     total cpu time spent up to now is       22.0 secs

     Computing kpt #:    73  of    80 on this pool
     total cpu time spent up to now is       22.4 secs

     Computing kpt #:    74  of    80 on this pool
     total cpu time spent up to now is       22.7 secs

     Computing kpt #:    75  of    80 on this pool
     total cpu time spent up to now is       23.0 secs

     Computing kpt #:    76  of    80 on this pool
     total cpu time spent up to now is       23.3 secs

     Computing kpt #:    77  of    80 on this pool
     total cpu time spent up to now is       23.6 secs

     Computing kpt #:    78  of    80 on this pool
     total cpu time spent up to now is       23.9 secs

     Computing kpt #:    79  of    80 on this pool
     total cpu time spent up to now is       24.3 secs

     Computing kpt #:    80  of    80 on this pool
     total cpu time spent up to now is       24.5 secs

     ethr =  1.25E-12,  avg # of iterations = 58.2

     total cpu time spent up to now is       24.5 secs

     End of band structure calculation

          k =-1.0000 0.5000 0.0000 (  2148 PWs)   bands (ev):

    -1.4572  -1.4572   2.3451   2.3451  10.4685  10.4685  11.1947  11.1947
    16.7674  16.7674  19.2218  19.2218  22.6287  22.6287  24.7784  24.7784
    25.0730  25.0730  25.9588  25.9588

          k =-0.9844 0.5000 0.0156 (  2148 PWs)   bands (ev):

    -1.5592  -1.3564   2.2727   2.4251  10.3829  10.5279  11.1304  11.2940
    16.5664  16.9372  19.0413  19.4292  22.4346  22.7981  24.5797  24.9229
    24.9831  25.2395  25.8151  26.1071

          k =-0.9688 0.5000 0.0312 (  2142 PWs)   bands (ev):

    -1.6616  -1.2577   2.2090   2.5119  10.2867  10.5394  11.1227  11.4127
    16.3367  17.0754  18.8863  19.6619  22.2169  22.9449  24.4000  24.7873
    25.1367  25.4415  25.7099  26.2500

          k =-0.9531 0.5000 0.0469 (  2146 PWs)   bands (ev):

    -1.7637  -1.1621   2.1550   2.6045  10.1878  10.4974  11.1772  11.5430
    16.0824  17.1835  18.7541  19.9149  21.9810  23.0730  24.2356  24.6723
    25.1459  25.6500  25.7593  26.3836

          k =-0.9375 0.5000 0.0625 (  2144 PWs)   bands (ev):

    -1.8651  -1.0706   2.1119   2.7023  10.0899  10.4203  11.2754  11.6811
    15.8080  17.2643  18.6408  20.1784  21.7379  23.1862  24.0770  24.5853
    25.0206  25.7718  26.0405  26.5065

          k =-0.9219 0.5000 0.0781 (  2142 PWs)   bands (ev):

    -1.9651  -0.9845   2.0810   2.8044   9.9951  10.3264  11.3990  11.8250
    15.5183  17.3210  18.5426  20.4292  21.5122  23.2872  23.9162  24.5308
    24.8387  25.9087  26.3679  26.6179

          k =-0.9062 0.5000 0.0938 (  2140 PWs)   bands (ev):

    -2.0635  -0.9048   2.0635   2.9102   9.9045  10.2256  11.5378  11.9737
    15.2173  17.3563  18.4562  20.5970  21.3751  23.3759  23.7499  24.5087
    24.6370  26.0527  26.7070  26.7174

          k =-0.8906 0.5000 0.1094 (  2138 PWs)   bands (ev):

    -2.1597  -0.8329   2.0606   3.0192   9.8189  10.1226  11.6873  12.1263
    14.9084  17.3728  18.3788  20.5575  21.4512  23.4470  23.5786  24.4341
    24.5162  26.1964  26.8050  27.0426

          k =-0.8750 0.5000 0.1250 (  2134 PWs)   bands (ev):

    -2.2536  -0.7696   2.0733   3.1305   9.7387  10.0197  11.8449  12.2823
    14.5945  17.3721  18.3084  20.3591  21.6912  23.4052  23.4836  24.2530
    24.5500  26.3358  26.8808  27.3552

          k =-0.8594 0.5000 0.1406 (  2128 PWs)   bands (ev):

    -2.3449  -0.7156   2.1024   3.2438   9.6643   9.9180  12.0094  12.4412
    14.2777  17.3553  18.2436  20.1111  21.9809  23.2360  23.4491  24.1339
    24.6074  26.4678  26.9448  27.6156

          k =-0.8438 0.5000 0.1562 (  2130 PWs)   bands (ev):

    -2.4333  -0.6715   2.1481   3.3583   9.5962   9.8180  12.1801  12.6025
    13.9598  17.3225  18.1831  19.8534  22.2636  23.0895  23.3153  24.1073
    24.6868  26.5895  26.9976  27.7958

          k =-0.8281 0.5000 0.1719 (  2122 PWs)   bands (ev):

    -2.5186  -0.6372   2.2105   3.4734   9.5345   9.7202  12.3564  12.7658
    13.6425  17.2738  18.1263  19.6002  22.4548  23.0364  23.1074  24.1497
    24.7877  26.6978  27.0397  27.8984

          k =-0.8125 0.5000 0.1875 (  2124 PWs)   bands (ev):

    -2.6007  -0.6123   2.2892   3.5886   9.4795   9.6246  12.5379  12.9305
    13.3269  17.2084  18.0727  19.3590  22.4356  22.8614  23.1887  24.2261
    24.9103  26.7897  27.0718  27.9562

          k =-0.7969 0.5000 0.2031 (  2130 PWs)   bands (ev):

    -2.6795  -0.5962   2.3833   3.7031   9.4316   9.5312  12.7243  13.0146
    13.0959  17.1257  18.0218  19.1349  22.2902  22.5961  23.4562  24.3185
    25.0560  26.8631  27.0948  27.9996

          k =-0.7812 0.5000 0.2188 (  2128 PWs)   bands (ev):

    -2.7547  -0.5878   2.4918   3.8164   9.3908   9.4397  12.7047  12.9171
    13.2611  17.0255  17.9734  18.9314  22.1078  22.3198  23.7447  24.4191
    25.2266  26.9174  27.1099  28.0447

          k =-0.7656 0.5000 0.2344 (  2126 PWs)   bands (ev):

    -2.8263  -0.5862   2.6133   3.9279   9.3499   9.3573  12.4018  13.1129
    13.4251  16.9085  17.9275  18.7506  21.9119  22.0367  24.0258  24.5238
    25.4239  26.9547  27.1184  28.0972

          k =-0.7500 0.5000 0.2500 (  2132 PWs)   bands (ev):

    -2.8943  -0.5901   2.7466   4.0367   9.2613   9.3312  12.1048  13.3138
    13.5863  16.7774  17.8840  18.5932  21.7097  21.7492  24.2889  24.6300
    25.6483  26.9789  27.1217  28.1565

          k =-0.7344 0.5000 0.2656 (  2118 PWs)   bands (ev):

    -2.9584  -0.5984   2.8901   4.1423   9.1735   9.3126  11.8153  13.5192
    13.7426  16.6364  17.8428  18.4579  21.4588  21.5041  24.5304  24.7359
    25.8973  26.9948  27.1214  28.2189

          k =-0.7188 0.5000 0.2812 (  2122 PWs)   bands (ev):

    -3.0187  -0.6100   3.0426   4.2441   9.0855   9.3014  11.5349  13.7290
    13.8911  16.4920  17.8040  18.3425  21.1668  21.2969  24.7504  24.8398
    26.1657  27.0072  27.1194  28.2798

          k =-0.7031 0.5000 0.2969 (  2124 PWs)   bands (ev):

    -3.0751  -0.6241   3.2026   4.3414   8.9964   9.2975  11.2653  13.9430
    14.0277  16.3522  17.7675  18.2439  20.8739  21.0893  24.9401  24.9512
    26.4455  27.0203  27.1177  28.3347

          k =-0.6875 0.5000 0.3125 (  2126 PWs)   bands (ev):

    -3.1275  -0.6398   3.3687   4.4335   8.9049   9.3007  11.0084  14.1466
    14.1612  16.2267  17.7334  18.1590  20.5810  20.8824  25.0352  25.1356
    26.7272  27.0376  27.1190  28.3798

          k =-0.6719 0.5000 0.3281 (  2124 PWs)   bands (ev):

    -3.1758  -0.6564   3.5395   4.5200   8.8098   9.3103  10.7667  14.2406
    14.3834  16.1263  17.7019  18.0848  20.2888  20.6775  25.1237  25.3055
    26.9962  27.0616  27.1311  28.4121

          k =-0.6562 0.5000 0.3438 (  2126 PWs)   bands (ev):

    -3.2201  -0.6731   3.7135   4.6002   8.7095   9.3260  10.5427  14.3020
    14.6094  16.0617  17.6728  18.0188  19.9976  20.4759  25.2043  25.4619
    27.0944  27.1207  27.2790  28.4298

          k =-0.6406 0.5000 0.3594 (  2124 PWs)   bands (ev):

    -3.2603  -0.6896   3.8889   4.6739   8.6026   9.3467  10.3390  14.3255
    14.8390  16.0408  17.6464  17.9588  19.7082  20.2792  25.2760  25.6043
    27.1371  27.1469  27.5104  28.4321

          k =-0.6250 0.5000 0.3750 (  2122 PWs)   bands (ev):

    -3.2963  -0.7054   4.0637   4.7405   8.4885   9.3715  10.1580  14.3117
    15.0720  16.0648  17.6225  17.9028  19.4211  20.0892  25.3382  25.7315
    27.1808  27.1903  27.7134  28.4189

          k =-0.6094 0.5000 0.3906 (  2118 PWs)   bands (ev):

    -3.3281  -0.7200   4.2356   4.7997   8.3677   9.3990  10.0014  14.2682
    15.3080  16.1278  17.6014  17.8490  19.1368  19.9084  25.3908  25.8418
    27.2284  27.2537  27.8773  28.3908

          k =-0.5938 0.5000 0.4062 (  2118 PWs)   bands (ev):

    -3.3558  -0.7332   4.4016   4.8513   8.2423   9.4279   9.8697  14.2060
    15.5463  16.2195  17.5830  17.7960  18.8563  19.7395  25.4341  25.9341
    27.2914  27.3265  27.9969  28.3490

          k =-0.5781 0.5000 0.4219 (  2118 PWs)   bands (ev):

    -3.3792  -0.7448   4.5578   4.8952   8.1164   9.4565   9.7626  14.1361
    15.7861  16.3286  17.5673  17.7424  18.5805  19.5860  25.4687  26.0079
    27.3695  27.4074  28.0706  28.2949

          k =-0.5625 0.5000 0.4375 (  2116 PWs)   bands (ev):

    -3.3984  -0.7545   4.6995   4.9313   7.9962   9.4831   9.6785  14.0679
    16.0255  16.4448  17.5545  17.6877  18.3115  19.4519  25.4955  26.0642
    27.4606  27.4945  28.1007  28.2303

          k =-0.5469 0.5000 0.4531 (  2122 PWs)   bands (ev):

    -3.4133  -0.7622   4.8208   4.9593   7.8891   9.5059   9.6156  14.0083
    16.2609  16.5576  17.5444  17.6330  18.0530  19.3414  25.5152  26.1048
    27.5605  27.5855  28.0924  28.1572

          k =-0.5312 0.5000 0.4688 (  2126 PWs)   bands (ev):

    -3.4240  -0.7678   4.9148   4.9794   7.8038   9.5235   9.5722  13.9624
    16.4833  16.6554  17.5372  17.5823  17.8140  19.2588  25.5287  26.1318
    27.6635  27.6774  28.0531  28.0784

          k =-0.5156 0.5000 0.4844 (  2120 PWs)   bands (ev):

    -3.4304  -0.7712   4.9748   4.9914   7.7485   9.5346   9.5468  13.9335
    16.6680  16.7243  17.5328  17.5441  17.6194  19.2076  25.5365  26.1472
    27.7594  27.7637  27.9946  28.0001

          k =-0.5000 0.5000 0.5000 (  2120 PWs)   bands (ev):

    -3.4326  -0.7724   4.9954   4.9954   7.7293   9.5384   9.5384  13.9237
    16.7495  16.7495  17.5294  17.5294  17.5365  19.1902  25.5391  26.1522
    27.8124  27.8124  27.9540  27.9540

          k =-0.4872 0.4872 0.4872 (  2120 PWs)   bands (ev):

    -3.4420  -0.7588   4.9966   4.9966   7.7306   9.5398   9.5398  13.9258
    16.6684  16.6684  17.4995  17.6155  17.6155  19.2256  25.3461  26.3519
    27.5572  27.5572  28.1993  28.1993

          k =-0.4744 0.4744 0.4744 (  2120 PWs)   bands (ev):

    -3.4698  -0.7189   5.0002   5.0002   7.7347   9.5439   9.5439  13.9321
    16.4856  16.4856  17.3969  17.8130  17.8130  19.3226  25.0063  26.7121
    27.2360  27.2360  28.4904  28.4904

          k =-0.4615 0.4615 0.4615 (  2117 PWs)   bands (ev):

    -3.5142  -0.6542   5.0061   5.0061   7.7415   9.5506   9.5506  13.9424
    16.2673  16.2673  17.2473  18.0558  18.0558  19.4618  24.6477  26.9078
    26.9078  27.1060  28.7672  28.7672

          k =-0.4487 0.4487 0.4487 (  2117 PWs)   bands (ev):

    -3.5730  -0.5669   5.0143   5.0143   7.7510   9.5598   9.5598  13.9565
    16.0387  16.0387  17.0677  18.3186  18.3186  19.6240  24.2936  26.5767
    26.5767  27.5122  29.0237  29.0237

          k =-0.4359 0.4359 0.4359 (  2111 PWs)   bands (ev):

    -3.6437  -0.4597   5.0249   5.0249   7.7631   9.5714   9.5714  13.9741
    15.8087  15.8087  16.8701  18.5923  18.5923  19.7940  23.9533  26.2452
    26.2452  27.9246  29.2558  29.2558

          k =-0.4231 0.4231 0.4231 (  2111 PWs)   bands (ev):

    -3.7236  -0.3353   5.0379   5.0379   7.7780   9.5850   9.5850  13.9945
    15.5814  15.5814  16.6623  18.8725  18.8725  19.9584  23.6348  25.9150
    25.9150  28.3399  29.4606  29.4606

          k =-0.4103 0.4103 0.4103 (  2120 PWs)   bands (ev):

    -3.8104  -0.1958   5.0532   5.0532   7.7955   9.6004   9.6004  14.0169
    15.3589  15.3589  16.4497  19.1568  19.1568  20.1038  23.3482  25.5881
    25.5881  28.7537  29.6360  29.6360

          k =-0.3974 0.3974 0.3974 (  2117 PWs)   bands (ev):

    -3.9022  -0.0435   5.0709   5.0709   7.8156   9.6173   9.6173  14.0401
    15.1424  15.1424  16.2362  19.4429  19.4429  20.2142  23.1074  25.2665
    25.2665  29.1489  29.7818  29.7818

          k =-0.3846 0.3846 0.3846 (  2120 PWs)   bands (ev):

    -3.9972   0.1201   5.0909   5.0909   7.8384   9.6351   9.6351  14.0622
    14.9332  14.9332  16.0254  19.7289  19.7289  20.2713  22.9290  24.9523
    24.9523  29.3479  29.7825  29.8991

          k =-0.3718 0.3718 0.3718 (  2120 PWs)   bands (ev):

    -4.0941   0.2935   5.1132   5.1132   7.8637   9.6533   9.6533  14.0805
    14.7320  14.7320  15.8212  20.0119  20.0119  20.2583  22.8290  24.6485
    24.6485  29.1016  29.9905  29.9905

          k =-0.3590 0.3590 0.3590 (  2120 PWs)   bands (ev):

    -4.1918   0.4756   5.1378   5.1378   7.8915   9.6713   9.6713  14.0906
    14.5398  14.5398  15.6285  20.1683  20.2880  20.2880  22.8134  24.3593
    24.3593  28.7748  30.0590  30.0590

          k =-0.3462 0.3462 0.3462 (  2108 PWs)   bands (ev):

    -4.2894   0.6653   5.1647   5.1647   7.9219   9.6884   9.6884  14.0861
    14.3575  14.3575  15.4541  20.0089  20.5513  20.5513  22.8741  24.0906
    24.0906  28.4399  30.1081  30.1081

          k =-0.3333 0.3333 0.3333 (  2114 PWs)   bands (ev):

    -4.3861   0.8618   5.1938   5.1938   7.9546   9.7039   9.7039  14.0583
    14.1859  14.1859  15.3067  19.7969  20.7925  20.7925  22.9935  23.8519
    23.8519  28.1064  30.1411  30.1411

          k =-0.3205 0.3205 0.3205 (  2120 PWs)   bands (ev):

    -4.4815   1.0646   5.2252   5.2252   7.9897   9.7169   9.7169  13.9978
    14.0260  14.0260  15.1957  19.5498  20.9971  20.9971  23.1533  23.6580
    23.6580  27.7786  30.1608  30.1608

          k =-0.3077 0.3077 0.3077 (  2120 PWs)   bands (ev):

    -4.5749   1.2731   5.2587   5.2587   8.0271   9.7264   9.7264  13.8787
    13.8787  13.8986  15.1267  19.2817  21.1445  21.1445  23.3382  23.5295
    23.5295  27.4592  30.1700  30.1700

          k =-0.2949 0.2949 0.2949 (  2121 PWs)   bands (ev):

    -4.6660   1.4866   5.2943   5.2943   8.0666   9.7315   9.7315  13.7452
    13.7452  13.7623  15.0976  19.0026  21.2124  21.2124  23.4889  23.4889
    23.5362  27.1519  30.1707  30.1707

          k =-0.2821 0.2821 0.2821 (  2115 PWs)   bands (ev):

    -4.7545   1.7048   5.3320   5.3320   8.1082   9.7312   9.7312  13.5962
    13.6264  13.6264  15.1006  18.7197  21.1896  21.1896  23.5472  23.5472
    23.7368  26.8613  30.1647  30.1647

          k =-0.2692 0.2692 0.2692 (  2118 PWs)   bands (ev):

    -4.8401   1.9274   5.3717   5.3717   8.1517   9.7246   9.7246  13.4086
    13.5231  13.5231  15.1260  18.4385  21.0858  21.0858  23.6951  23.6951
    23.9286  26.5951  30.1537  30.1537

          k =-0.2564 0.2564 0.2564 (  2112 PWs)   bands (ev):

    -4.9227   2.1537   5.4132   5.4132   8.1970   9.7109   9.7109  13.2065
    13.4361  13.4361  15.1655  18.1635  20.9233  20.9233  23.9101  23.9101
    24.0971  26.3653  30.1387  30.1387

          k =-0.2436 0.2436 0.2436 (  2109 PWs)   bands (ev):

    -5.0019   2.3837   5.4565   5.4565   8.2439   9.6896   9.6896  12.9945
    13.3659  13.3659  15.2123  17.8989  20.7235  20.7235  24.1709  24.1709
    24.2215  26.1911  30.1210  30.1210

          k =-0.2308 0.2308 0.2308 (  2109 PWs)   bands (ev):

    -5.0777   2.6167   5.5015   5.5015   8.2921   9.6603   9.6603  12.7758
    13.3129  13.3129  15.2604  17.6492  20.5020  20.5020  24.2764  24.4617
    24.4617  26.0966  30.1015  30.1015

          k =-0.2179 0.2179 0.2179 (  2115 PWs)   bands (ev):

    -5.1499   2.8524   5.5479   5.5479   8.3413   9.6231   9.6231  12.5524
    13.2769  13.2769  15.3037  17.4199  20.2687  20.2687  24.2445  24.7727
    24.7727  26.0983  30.0808  30.0808

          k =-0.2051 0.2051 0.2051 (  2115 PWs)   bands (ev):

    -5.2184   3.0905   5.5956   5.5956   8.3914   9.5782   9.5782  12.3257
    13.2576  13.2576  15.3350  17.2177  20.0302  20.0302  24.1323  25.0972
    25.0972  26.1891  30.0596  30.0596

          k =-0.1923 0.1923 0.1923 (  2112 PWs)   bands (ev):

    -5.2831   3.3305   5.6444   5.6444   8.4420   9.5263   9.5263  12.0967
    13.2541  13.2541  15.3462  17.0505  19.7905  19.7905  23.9637  25.4310
    25.4310  26.3450  30.0387  30.0387

          k =-0.1795 0.1795 0.1795 (  2112 PWs)   bands (ev):

    -5.3439   3.5717   5.6940   5.6940   8.4925   9.4682   9.4682  11.8664
    13.2654  13.2654  15.3292  16.9266  19.5526  19.5526  23.7622  25.7709
    25.7709  26.5417  30.0186  30.0186

          k =-0.1667 0.1667 0.1667 (  2112 PWs)   bands (ev):

    -5.4008   3.8137   5.7441   5.7441   8.5425   9.4052   9.4052  11.6355
    13.2902  13.2902  15.2789  16.8507  19.3187  19.3187  23.5445  26.1144
    26.1144  26.7628  29.9998  29.9998

          k =-0.1538 0.1538 0.1538 (  2112 PWs)   bands (ev):

    -5.4537   4.0558   5.7943   5.7943   8.5915   9.3385   9.3385  11.4050
    13.3268  13.3268  15.1966  16.8218  19.0906  19.0906  23.3207  26.4591
    26.4591  26.9977  29.9829  29.9829

          k =-0.1410 0.1410 0.1410 (  2112 PWs)   bands (ev):

    -5.5025   4.2970   5.8443   5.8443   8.6387   9.2695   9.2695  11.1758
    13.3736  13.3736  15.0893  16.8326  18.8698  18.8698  23.0974  26.8029
    26.8029  27.2400  29.9688  29.9688

          k =-0.1282 0.1282 0.1282 (  2112 PWs)   bands (ev):

    -5.5472   4.5363   5.8934   5.8934   8.6832   9.1996   9.1996  10.9493
    13.4287  13.4287  14.9670  16.8730  18.6580  18.6580  22.8790  27.1433
    27.1433  27.4851  29.9581  29.9581

          k =-0.1154 0.1154 0.1154 (  2118 PWs)   bands (ev):

    -5.5877   4.7723   5.9413   5.9413   8.7240   9.1303   9.1303  10.7273
    13.4901  13.4901  14.8386  16.9333  18.4566  18.4566  22.6688  27.4772
    27.4772  27.7295  29.9521  29.9521

          k =-0.1026 0.1026 0.1026 (  2106 PWs)   bands (ev):

    -5.6241   5.0034   5.9872   5.9872   8.7598   9.0631   9.0631  10.5122
    13.5555  13.5555  14.7115  17.0057  18.2674  18.2674  22.4697  27.8009
    27.8009  27.9702  29.9521  29.9521

          k =-0.0897 0.0897 0.0897 (  2106 PWs)   bands (ev):

    -5.6563   5.2272   6.0304   6.0304   8.7890   8.9994   8.9994  10.3070
    13.6228  13.6228  14.5908  17.0840  18.0921  18.0921  22.2844  28.1091
    28.1091  28.2041  29.9603  29.9603

          k =-0.0769 0.0769 0.0769 (  2100 PWs)   bands (ev):

    -5.6842   5.4408   6.0703   6.0703   8.8097   8.9406   8.9406  10.1160
    13.6894  13.6894  14.4805  17.1631  17.9328  17.9328  22.1155  28.3950
    28.3950  28.4275  29.9797  29.9797

          k =-0.0641 0.0641 0.0641 (  2097 PWs)   bands (ev):

    -5.7078   5.6402   6.1059   6.1059   8.8199   8.8880   8.8880   9.9446
    13.7526  13.7526  14.3832  17.2388  17.7918  17.7918  21.9656  28.6363
    28.6498  28.6498  30.0139  30.0139

          k =-0.0513 0.0513 0.0513 (  2097 PWs)   bands (ev):

    -5.7272   5.8199   6.1365   6.1365   8.8179   8.8430   8.8430   9.7989
[...]
    25.4753  25.9976  27.5175  30.2021

          k =-0.4130 0.0000 0.0000 (  2101 PWs)   bands (ev):

    -5.0211   3.4542   4.6515   4.6515   7.6128   9.9902  11.1973  11.1973
    13.3951  14.7492  16.7218  18.6975  18.6975  19.3316  24.6159  24.6159
    25.6961  25.8111  27.3157  30.3390

          k =-0.4348 0.0000 0.0000 (  2105 PWs)   bands (ev):

    -4.9418   3.2606   4.5610   4.5610   7.5379   9.8280  11.3825  11.3825
    13.5959  14.8380  16.9432  18.8223  18.8223  19.4707  24.3473  24.3473
    25.3963  26.1451  27.1149  30.4907

          k =-0.4565 0.0000 0.0000 (  2105 PWs)   bands (ev):

    -4.8586   3.0663   4.4730   4.4730   7.4652   9.6627  11.5697  11.5697
    13.8061  14.9314  17.1677  18.9493  18.9493  19.6145  24.0863  24.0863
    25.0984  26.4748  26.9157  30.6587

          k =-0.4783 0.0000 0.0000 (  2105 PWs)   bands (ev):

    -4.7716   2.8716   4.3878   4.3878   7.3951   9.4967  11.7586  11.7586
    14.0233  15.0294  17.3945  19.0772  19.0772  19.7636  23.8345  23.8345
    24.8027  26.7190  26.7977  30.8447

          k =-0.5000 0.0000 0.0000 (  2085 PWs)   bands (ev):

    -4.6807   2.6765   4.3054   4.3054   7.3278   9.3317  11.9492  11.9492
    14.2458  15.1318  17.6227  19.2037  19.2037  19.9181  23.5943  23.5943
    24.5094  26.5255  27.1112  31.0505

          k =-0.5217 0.0000 0.0000 (  2113 PWs)   bands (ev):

    -4.5859   2.4812   4.2259   4.2259   7.2635   9.1690  12.1413  12.1413
    14.4723  15.2388  17.8512  19.3261  19.3261  20.0784  23.3684  23.3684
    24.2188  26.3362  27.4130  31.2772

          k =-0.5435 0.0000 0.0000 (  2113 PWs)   bands (ev):

    -4.4874   2.2859   4.1495   4.1495   7.2024   9.0095  12.3348  12.3348
    14.7016  15.3502  18.0789  19.4408  19.4408  20.2448  23.1606  23.1606
    23.9311  26.1523  27.7013  31.5255

          k =-0.5652 0.0000 0.0000 (  2113 PWs)   bands (ev):

    -4.3851   2.0906   4.0762   4.0762   7.1447   8.8538  12.5296  12.5296
    14.9330  15.4662  18.3045  19.5429  19.5429  20.4173  22.9759  22.9759
    23.6463  25.9749  27.9745  31.7949

          k =-0.5870 0.0000 0.0000 (  2105 PWs)   bands (ev):

    -4.2791   1.8954   4.0062   4.0062   7.0907   8.7026  12.7257  12.7257
    15.1657  15.5867  18.5264  19.6264  19.6264  20.5963  22.8202  22.8202
    23.3647  25.8055  28.2320  31.7009

          k =-0.6087 0.0000 0.0000 (  2105 PWs)   bands (ev):

    -4.1694   1.7006   3.9394   3.9394   7.0404   8.5563  12.9230  12.9230
    15.3991  15.7116  18.7428  19.6843  19.6843  20.7818  22.7006  22.7006
    23.0863  25.6457  28.4736  31.4711

          k =-0.6304 0.0000 0.0000 (  2117 PWs)   bands (ev):

    -4.0560   1.5062   3.8760   3.8760   6.9940   8.4152  13.1213  13.1213
    15.6327  15.8411  18.9515  19.7095  19.7095  20.9741  22.6241  22.6241
    22.8113  25.4976  28.6998  31.2197

          k =-0.6522 0.0000 0.0000 (  2109 PWs)   bands (ev):

    -3.9390   1.3123   3.8159   3.8159   6.9516   8.2795  13.3208  13.3208
    15.8660  15.9750  19.1502  19.6969  19.6969  21.1732  22.5398  22.5958
    22.5958  25.3633  28.9117  30.9496

          k =-0.6739 0.0000 0.0000 (  2108 PWs)   bands (ev):

    -3.8185   1.1190   3.7593   3.7593   6.9134   8.1494  13.5212  13.5212
    16.0985  16.1133  19.3359  19.6445  19.6445  21.3791  22.2718  22.6177
    22.6177  25.2454  29.1103  30.6639

          k =-0.6957 0.0000 0.0000 (  2112 PWs)   bands (ev):

    -3.6944   0.9265   3.7062   3.7062   6.8795   8.0251  13.7227  13.7227
    16.2562  16.3300  19.5055  19.5544  19.5544  21.5919  22.0074  22.6877
    22.6877  25.1466  29.2967  30.3660

          k =-0.7174 0.0000 0.0000 (  2112 PWs)   bands (ev):

    -3.5669   0.7349   3.6566   3.6566   6.8500   7.9067  13.9250  13.9250
    16.4035  16.5599  19.4318  19.4318  19.6557  21.7468  21.8115  22.8005
    22.8005  25.0700  29.4717  30.0595

          k =-0.7391 0.0000 0.0000 (  2112 PWs)   bands (ev):

    -3.4360   0.5444   3.6105   3.6105   6.8251   7.7942  14.1282  14.1282
    16.5552  16.7879  19.2829  19.2829  19.7829  21.4899  22.0378  22.9497
    22.9497  25.0181  29.6351  29.7474

          k =-0.7609 0.0000 0.0000 (  2112 PWs)   bands (ev):

    -3.3017   0.3549   3.5681   3.5681   6.8047   7.6878  14.3321  14.3321
    16.7114  17.0137  19.1142  19.1142  19.8841  21.2368  22.2707  23.1290
    23.1290  24.9933  29.4329  29.7846

          k =-0.7826 0.0000 0.0000 (  2112 PWs)   bands (ev):

    -3.1641   0.1667   3.5292   3.5292   6.7890   7.5873  14.5366  14.5366
    16.8719  17.2369  18.9308  18.9308  19.9566  20.9876  22.5099  23.3331
    23.3331  24.9967  29.1193  29.6885

          k =-0.8043 0.0000 0.0000 (  2112 PWs)   bands (ev):

    -3.0232  -0.0201   3.4940   3.4940   6.7781   7.4929  14.7416  14.7416
    17.0369  17.4572  18.7371  18.7371  19.9989  20.7424  22.7550  23.5577
    23.5577  25.0280  28.8101  29.3224

          k =-0.8261 0.0000 0.0000 (  2120 PWs)   bands (ev):

    -2.8791  -0.2055   3.4624   3.4624   6.7721   7.4045  14.9466  14.9466
    17.2063  17.6743  18.5367  18.5367  20.0104  20.5011  23.0055  23.7992
    23.7992  25.0845  28.5097  28.9583

          k =-0.8478 0.0000 0.0000 (  2120 PWs)   bands (ev):

    -2.7320  -0.3892   3.4345   3.4345   6.7711   7.3221  15.1513  15.1513
    17.3801  17.8875  18.3322  18.3322  19.9921  20.2638  23.2608  24.0553
    24.0553  25.1608  28.2238  28.5969

          k =-0.8696 0.0000 0.0000 (  2124 PWs)   bands (ev):

    -2.5818  -0.5712   3.4103   3.4103   6.7751   7.2457  15.3549  15.3549
    17.5582  18.0967  18.1261  18.1261  19.9456  20.0305  23.5200  24.3236
    24.3236  25.2475  27.9609  28.2391

          k =-0.8913 0.0000 0.0000 (  2120 PWs)   bands (ev):

    -2.4286  -0.7513   3.3898   3.3898   6.7843   7.1752  15.5562  15.5562
    17.7407  17.9211  17.9211  18.3011  19.8014  19.8735  23.7817  24.6025
    24.6025  25.3300  27.7337  27.8857

          k =-0.9130 0.0000 0.0000 (  2128 PWs)   bands (ev):

    -2.2725  -0.9296   3.3731   3.3731   6.7987   7.1106  15.7529  15.7529
    17.7203  17.7203  17.9276  18.5003  19.5764  19.7788  24.0441  24.8902
    24.8902  25.3877  27.5378  27.5378

          k =-0.9348 0.0000 0.0000 (  2116 PWs)   bands (ev):

    -2.1136  -1.1057   3.3600   3.3600   6.8184   7.0518  15.9405  15.9405
    17.5289  17.5289  18.1187  18.6935  19.3555  19.6642  24.3047  25.1845
    25.1845  25.3957  27.1972  27.1972

          k =-0.9565 0.0000 0.0000 (  2108 PWs)   bands (ev):

    -1.9519  -1.2797   3.3507   3.3507   6.8435   6.9989  16.1093  16.1093
    17.3570  17.3570  18.3142  18.8799  19.1388  19.5326  24.5592  25.3356
    25.4810  25.4810  26.8678  26.8678

          k =-0.9783 0.0000 0.0000 (  2100 PWs)   bands (ev):

    -1.7876  -1.4514   3.3451   3.3451   6.8740   6.9516  16.2384  16.2384
    17.2260  17.2260  18.5140  18.9263  19.0583  19.3863  24.8016  25.2062
    25.7642  25.7642  26.5649  26.5649

          k =-1.0000 0.0000 0.0000 (  2100 PWs)   bands (ev):

    -1.6207  -1.6207   3.3432   3.3432   6.9100   6.9100  16.2899  16.2899
    17.1738  17.1738  18.7180  18.7180  19.2277  19.2277  25.0221  25.0221
    25.9306  25.9306  26.3920  26.3920

          k =-1.0000 0.0208 0.0000 (  2100 PWs)   bands (ev):

    -1.6201  -1.6201   3.3374   3.3374   6.9206   6.9206  16.2730  16.2730
    17.1471  17.1471  18.7403  18.7403  19.2507  19.2507  24.9915  24.9915
    25.9300  25.9300  26.4158  26.4158

          k =-1.0000 0.0417 0.0000 (  2104 PWs)   bands (ev):

    -1.6182  -1.6182   3.3202   3.3202   6.9521   6.9521  16.2196  16.2196
    17.0797  17.0797  18.7924  18.7924  19.3249  19.3249  24.9084  24.9084
    25.9203  25.9203  26.4876  26.4876

          k =-1.0000 0.0625 0.0000 (  2112 PWs)   bands (ev):

    -1.6150  -1.6150   3.2923   3.2923   7.0039   7.0039  16.1240  16.1240
    16.9984  16.9984  18.8466  18.8466  19.4566  19.4566  24.7910  24.7910
    25.8912  25.8912  26.6019  26.6019

          k =-1.0000 0.0833 0.0000 (  2120 PWs)   bands (ev):

    -1.6107  -1.6107   3.2549   3.2549   7.0748   7.0748  15.9830  15.9830
    16.9257  16.9257  18.8890  18.8890  19.6404  19.6404  24.6546  24.6546
    25.8431  25.8431  26.7462  26.7462

          k =-1.0000 0.1042 0.0000 (  2122 PWs)   bands (ev):

    -1.6052  -1.6052   3.2092   3.2092   7.1637   7.1637  15.8008  15.8008
    16.8709  16.8709  18.9203  18.9203  19.8619  19.8619  24.5092  24.5092
    25.7814  25.7814  26.9075  26.9075

          k =-1.0000 0.1250 0.0000 (  2130 PWs)   bands (ev):

    -1.5987  -1.5987   3.1568   3.1568   7.2689   7.2689  15.5871  15.5871
    16.8330  16.8330  18.9450  18.9450  20.1077  20.1077  24.3608  24.3608
    25.7111  25.7111  27.0762  27.0762

          k =-1.0000 0.1458 0.0000 (  2130 PWs)   bands (ev):

    -1.5911  -1.5911   3.0991   3.0991   7.3892   7.3892  15.3514  15.3514
    16.8076  16.8076  18.9663  18.9663  20.3690  20.3690  24.2132  24.2132
    25.6361  25.6361  27.2447  27.2447

          k =-1.0000 0.1667 0.0000 (  2126 PWs)   bands (ev):

    -1.5827  -1.5827   3.0376   3.0376   7.5230   7.5230  15.1013  15.1013
    16.7908  16.7908  18.9862  18.9862  20.6402  20.6402  24.0691  24.0691
    25.5592  25.5592  27.4067  27.4067

          k =-1.0000 0.1875 0.0000 (  2126 PWs)   bands (ev):

    -1.5735  -1.5735   2.9738   2.9738   7.6690   7.6690  14.8419  14.8419
    16.7796  16.7796  19.0056  19.0056  20.9174  20.9174  23.9303  23.9303
    25.4824  25.4824  27.5559  27.5559

          k =-1.0000 0.2083 0.0000 (  2130 PWs)   bands (ev):

    -1.5637  -1.5637   2.9089   2.9089   7.8261   7.8261  14.5766  14.5766
    16.7723  16.7723  19.0249  19.0249  21.1977  21.1977  23.7985  23.7985
    25.4071  25.4071  27.6856  27.6856

          k =-1.0000 0.2292 0.0000 (  2134 PWs)   bands (ev):

    -1.5535  -1.5535   2.8440   2.8440   7.9931   7.9931  14.3078  14.3078
    16.7675  16.7675  19.0444  19.0444  21.4788  21.4788  23.6756  23.6756
    25.3344  25.3344  27.7871  27.7871

          k =-1.0000 0.2500 0.0000 (  2142 PWs)   bands (ev):

    -1.5429  -1.5429   2.7802   2.7802   8.1691   8.1691  14.0370  14.0370
    16.7647  16.7647  19.0639  19.0639  21.7576  21.7576  23.5640  23.5640
    25.2650  25.2650  27.8499  27.8499

          k =-1.0000 0.2708 0.0000 (  2144 PWs)   bands (ev):

    -1.5322  -1.5322   2.7184   2.7184   8.3532   8.3532  13.7657  13.7657
    16.7631  16.7631  19.0835  19.0835  22.0300  22.0300  23.4676  23.4676
    25.1998  25.1998  27.8622  27.8622

          k =-1.0000 0.2917 0.0000 (  2144 PWs)   bands (ev):

    -1.5216  -1.5216   2.6594   2.6594   8.5447   8.5447  13.4946  13.4946
    16.7624  16.7624  19.1029  19.1029  22.2876  22.2876  23.3945  23.3945
    25.1390  25.1390  27.8160  27.8160

          k =-1.0000 0.3125 0.0000 (  2146 PWs)   bands (ev):

    -1.5111  -1.5111   2.6039   2.6039   8.7428   8.7428  13.2246  13.2246
    16.7624  16.7624  19.1219  19.1219  22.5130  22.5130  23.3619  23.3619
    25.0833  25.0833  27.7117  27.7117

          k =-1.0000 0.3333 0.0000 (  2158 PWs)   bands (ev):

    -1.5012  -1.5012   2.5526   2.5526   8.9468   8.9468  12.9564  12.9564
    16.7628  16.7628  19.1401  19.1401  22.6728  22.6728  23.4029  23.4029
    25.0330  25.0330  27.5584  27.5584

          k =-1.0000 0.3542 0.0000 (  2146 PWs)   bands (ev):

    -1.4918  -1.4918   2.5060   2.5060   9.1559   9.1559  12.6908  12.6908
    16.7634  16.7634  19.1573  19.1573  22.7425  22.7425  23.5416  23.5416
    24.9884  24.9884  27.3687  27.3687

          k =-1.0000 0.3750 0.0000 (  2152 PWs)   bands (ev):

    -1.4832  -1.4832   2.4646   2.4646   9.3693   9.3693  12.4286  12.4286
    16.7642  16.7642  19.1731  19.1731  22.7473  22.7473  23.7519  23.7519
    24.9499  24.9499  27.1539  27.1539

          k =-1.0000 0.3958 0.0000 (  2154 PWs)   bands (ev):

    -1.4757  -1.4757   2.4289   2.4289   9.5858   9.5858  12.1709  12.1709
    16.7650  16.7650  19.1872  19.1872  22.7249  22.7249  23.9946  23.9946
    24.9184  24.9184  26.9232  26.9232

          k =-1.0000 0.4167 0.0000 (  2154 PWs)   bands (ev):

    -1.4692  -1.4692   2.3991   2.3991   9.8034   9.8034  11.9196  11.9196
    16.7658  16.7658  19.1992  19.1992  22.6956  22.6956  24.2458  24.2458
    24.8953  24.8953  26.6844  26.6844

          k =-1.0000 0.4375 0.0000 (  2154 PWs)   bands (ev):

    -1.4641  -1.4641   2.3757   2.3757  10.0185  10.0185  11.6783  11.6783
    16.7664  16.7664  19.2089  19.2089  22.6682  22.6682  24.4874  24.4874
    24.8855  24.8855  26.4458  26.4458

          k =-1.0000 0.4583 0.0000 (  2148 PWs)   bands (ev):

    -1.4603  -1.4603   2.3587   2.3587  10.2228  10.2228  11.4553  11.4553
    16.7669  16.7669  19.2160  19.2160  22.6468  22.6468  24.6829  24.6829
    24.9107  24.9107  26.2203  26.2203

          k =-1.0000 0.4792 0.0000 (  2148 PWs)   bands (ev):

    -1.4580  -1.4580   2.3485   2.3485  10.3932  10.3932  11.2738  11.2738
    16.7672  16.7672  19.2204  19.2204  22.6333  22.6333  24.7653  24.7653
    25.0089  25.0089  26.0370  26.0370

          k =-1.0000 0.5000 0.0000 (  2148 PWs)   bands (ev):

    -1.4572  -1.4572   2.3451   2.3451  10.4685  10.4685  11.1947  11.1947
    16.7674  16.7674  19.2218  19.2218  22.6287  22.6287  24.7784  24.7784
    25.0730  25.0730  25.9588  25.9588

          k =-0.9853 0.5147 0.0000 (  2148 PWs)   bands (ev):

    -1.5228  -1.3929   2.2955   2.4014  10.3445  10.5060  11.2161  11.2675
    16.6392  16.8805  19.1000  19.3553  22.5085  22.7421  24.6396  24.9228
    24.9451  25.1266  25.8798  26.1200

          k =-0.9706 0.5294 0.0000 (  2145 PWs)   bands (ev):

    -1.5845  -1.3351   2.2486   2.4685  10.1275  10.5204  11.3399  11.3693
    16.5028  16.9668  18.9996  19.4961  22.3919  22.8366  24.5158  24.7730
    25.0818  25.0986  25.8359  26.3709

          k =-0.9559 0.5441 0.0000 (  2151 PWs)   bands (ev):

    -1.6423  -1.2838   2.2042   2.5458   9.8784  10.5185  11.4931  11.5061
    16.3597  17.0156  18.9320  19.6429  22.2811  22.9056  24.4136  24.5724
    25.0388  25.2483  25.8176  26.6603

          k =-0.9412 0.5588 0.0000 (  2151 PWs)   bands (ev):

    -1.6962  -1.2387   2.1627   2.6326   9.6209  10.5066  11.6325  11.6911
    16.2107  17.0174  18.9077  19.7943  22.1774  22.9433  24.3303  24.3532
    24.9811  25.4175  25.8191  26.9607

          k =-0.9265 0.5735 0.0000 (  2149 PWs)   bands (ev):

    -1.7461  -1.1995   2.1239   2.7278   9.3639  10.4890  11.7828  11.8869
    16.0568  16.9679  18.9320  19.9493  22.0814  22.9480  24.1228  24.2557
    24.9485  25.5755  25.8468  27.2585

          k =-0.9118 0.5882 0.0000 (  2147 PWs)   bands (ev):

    -1.7921  -1.1658   2.0881   2.8302   9.1119  10.4688  11.9410  12.0898
    15.8985  16.8701  19.0026  20.1072  21.9931  22.9229  23.8861  24.1761
    24.9562  25.6851  25.9330  27.5458

          k =-0.8971 0.6029 0.0000 (  2139 PWs)   bands (ev):

    -1.8341  -1.1371   2.0552   2.9384   8.8674  10.4477  12.1049  12.2981
    15.7364  16.7328  19.1116  20.2671  21.9124  22.8745  23.6460  24.0831
    25.0083  25.7316  26.0895  27.8161

          k =-0.8824 0.6176 0.0000 (  2138 PWs)   bands (ev):

    -1.8721  -1.1130   2.0253   3.0504   8.6327  10.4270  12.2732  12.5108
    15.5710  16.5656  19.2500  20.4284  21.8389  22.8101  23.4051  23.9772
    25.0981  25.7512  26.2779  28.0620

          k =-0.8676 0.6324 0.0000 (  2134 PWs)   bands (ev):

    -1.9062  -1.0930   1.9984   3.1643   8.4099  10.4072  12.4447  12.7273
    15.4028  16.3769  19.4101  20.5903  21.7718  22.7358  23.1652  23.8632
    25.2152  25.7622  26.4784  28.2677

          k =-0.8529 0.6471 0.0000 (  2132 PWs)   bands (ev):

    -1.9362  -1.0765   1.9746   3.2776   8.2014  10.3890  12.6185  12.9470
    15.2324  16.1731  19.5860  20.7519  21.7099  22.6552  22.9284  23.7466
    25.3499  25.7696  26.6842  28.3618

          k =-0.8382 0.6618 0.0000 (  2132 PWs)   bands (ev):

    -1.9623  -1.0632   1.9539   3.3873   8.0096  10.3728  12.7937  13.1696
    15.0605  15.9588  19.7736  20.9123  21.6515  22.5703  22.6974  23.6327
    25.4944  25.7750  26.8919  28.2798

          k =-0.8235 0.6765 0.0000 (  2132 PWs)   bands (ev):

    -1.9843  -1.0526   1.9364   3.4903   7.8378  10.3587  12.9690  13.3944
    14.8881  15.7373  19.9696  21.0701  21.5930  22.4764  22.4820  23.5260
    25.6416  25.7791  27.0984  28.1482

          k =-0.8088 0.6912 0.0000 (  2128 PWs)   bands (ev):

    -2.0024  -1.0445   1.9220   3.5828   7.6894  10.3470  13.1429  13.6210
    14.7167  15.5114  20.1714  21.2235  21.5283  22.2725  22.3904  23.4313
    25.7822  25.7847  27.2993  28.0129

          k =-0.7941 0.7059 0.0000 (  2127 PWs)   bands (ev):

    -2.0164  -1.0384   1.9107   3.6607   7.5682  10.3378  13.3125  13.8482
    14.5491  15.2835  20.3766  21.3694  21.4467  22.0980  22.2960  23.3526
    25.7844  25.9156  27.4880  27.8873

          k =-0.7794 0.7206 0.0000 (  2135 PWs)   bands (ev):

    -2.0265  -1.0343   1.9027   3.7201   7.4780  10.3311  13.4714  14.0736
    14.3917  15.0569  20.5819  21.3350  21.5016  21.9685  22.2025  23.2937
    25.7860  26.0237  27.6522  27.7827

          k =-0.7647 0.7353 0.0000 (  2135 PWs)   bands (ev):

    -2.0325  -1.0318   1.8979   3.7574   7.4223  10.3271  13.6019  14.2620
    14.2881  14.8416  20.7803  21.1905  21.6058  21.8932  22.1224  23.2573
    25.7869  26.0968  27.7119  27.7708

          k =-0.7500 0.7500 0.0000 (  2141 PWs)   bands (ev):

    -2.0345  -1.0310   1.8963   3.7701   7.4034  10.3258  13.6590  14.2052
    14.4185  14.7108  20.9156  21.0720  21.6495  21.8693  22.0868  23.2449
    25.7872  26.1228  27.6865  27.8155

     Writing all to output data dir pwscf.out.d/pwscf.save/ :
     XML data file, pseudopotentials, collected wavefunctions

     init_run     :      0.73s CPU      0.77s WALL (       1 calls)
     electrons    :     20.72s CPU     23.38s WALL (       1 calls)

     Called by init_run:
     wfcinit      :      0.00s CPU      0.03s WALL (       1 calls)
     wfcinit:wfcr :      0.22s CPU      0.23s WALL (      80 calls)
     potinit      :      0.30s CPU      0.31s WALL (       1 calls)
     hinit0       :      0.39s CPU      0.39s WALL (       1 calls)

     Called by electrons:
     c_bands      :     20.72s CPU     23.38s WALL (       1 calls)
     v_of_rho     :      0.01s CPU      0.01s WALL (       1 calls)
     v_h          :      0.00s CPU      0.00s WALL (       1 calls)
     v_xc         :      0.01s CPU      0.01s WALL (       1 calls)
     newd         :      0.02s CPU      0.02s WALL (       1 calls)

     Called by c_bands:
     init_us_2    :      0.00s CPU      0.00s WALL (      80 calls)
     ccgdiagg     :     18.35s CPU     19.74s WALL (     206 calls)
     wfcrot       :      0.55s CPU      0.58s WALL (     206 calls)

     Called by sum_band:

     Called by *cgdiagg:
     h_psi        :     12.03s CPU     12.93s WALL (   91202 calls)
     s_psi        :      0.48s CPU      0.53s WALL (  182198 calls)

     Called by h_psi:
     h_psi:calbec :      1.29s CPU      1.38s WALL (   91202 calls)
     vloc_psi     :     10.15s CPU     10.91s WALL (   91202 calls)
     add_vuspsi   :      0.28s CPU      0.31s WALL (   91202 calls)
     hs_1psi      :     12.15s CPU     13.05s WALL (   90996 calls)
     s_1psi       :      1.32s CPU      1.41s WALL (   90996 calls)

     General routines
     calbec       :      2.01s CPU      2.17s WALL (  182198 calls)
     fft          :      0.37s CPU      0.37s WALL (      13 calls)
     ffts         :      0.27s CPU      0.27s WALL (       1 calls)
     fftw         :      8.54s CPU      9.17s WALL (  190232 calls)
     interpolate  :      0.27s CPU      0.27s WALL (       1 calls)
     davcio       :      0.01s CPU      0.02s WALL (     160 calls)

     Parallel routines

     PWSCF        :     21.81s CPU     25.83s WALL


   This run was terminated on:  13:36:41   3Apr2025            

=------------------------------------------------------------------------------=
   JOB DONE.
=------------------------------------------------------------------------------=
